/*--------------------------------*- C++ -*----------------------------------*\
  =========                 |
  \\      /  F ield         | OpenFOAM: The Open Source CFD Toolbox
   \\    /   O peration     | Website:  https://openfoam.org
    \\  /    A nd           | Version:  10
     \\/     M anipulation  |
\*---------------------------------------------------------------------------*/
FoamFile
{
    format      ascii;
    class       volScalarField;
    location    "0";
    object      p_d;
}
// * * * * * * * * * * * * * * * * * * * * * * * * * * * * * * * * * * * * * //

dimensions      [0 2 -2 0 0 0 0];

internalField   nonuniform List<scalar> 
66268
(
0.0698984
0.0702175
0.07078
0.0715844
0.0726097
0.0738306
0.0752292
0.0767856
0.078484
0.0803067
0.082239
0.0842645
0.0863695
0.0885387
0.0907592
0.0930165
0.0953003
0.0975968
0.0998959
0.102185
0.104456
0.106699
0.108906
0.111068
0.113181
0.115236
0.117231
0.11916
0.12102
0.122809
0.124525
0.126166
0.127733
0.129225
0.130643
0.131988
0.133261
0.134464
0.135599
0.136667
0.137672
0.138615
0.139499
0.140327
0.141101
0.141824
0.142499
0.143128
0.143714
0.14426
0.144767
0.145239
0.145677
0.146083
0.146461
0.146811
0.147135
0.147435
0.147714
0.147972
0.148207
0.148426
0.148629
0.148816
0.148989
0.149149
0.149297
0.149433
0.14956
0.069651
0.069975
0.0705318
0.0713329
0.0723547
0.0735713
0.0749657
0.0765181
0.0782131
0.0800329
0.0819634
0.083988
0.0860937
0.088265
0.0904899
0.092754
0.0950458
0.0973524
0.0996637
0.101968
0.104256
0.106518
0.108746
0.110932
0.113069
0.115151
0.117173
0.119131
0.121021
0.122841
0.124588
0.126261
0.12786
0.129384
0.130833
0.132209
0.133513
0.134745
0.135909
0.137006
0.138039
0.13901
0.139921
0.140775
0.141575
0.142324
0.143023
0.143676
0.144285
0.144852
0.14538
0.145871
0.146327
0.146751
0.147145
0.14751
0.147848
0.148162
0.148452
0.148721
0.148969
0.149199
0.149411
0.149608
0.14979
0.149957
0.150113
0.150256
0.150388
0.0691544
0.0694792
0.0700277
0.0708226
0.0718369
0.0730448
0.0744307
0.0759747
0.0776623
0.0794758
0.0814018
0.0834243
0.0855306
0.0877059
0.0899385
0.0922145
0.0945222
0.096849
0.0991848
0.101518
0.10384
0.106139
0.108408
0.110639
0.112825
0.114959
0.117036
0.119051
0.120999
0.122879
0.124688
0.126423
0.128083
0.129669
0.13118
0.132616
0.133979
0.13527
0.136491
0.137642
0.138728
0.139749
0.140708
0.141608
0.142451
0.143239
0.143976
0.144663
0.145304
0.145901
0.146456
0.146973
0.147453
0.147899
0.148313
0.148697
0.149053
0.149382
0.149688
0.149971
0.150232
0.150474
0.150698
0.150905
0.151096
0.151273
0.151437
0.151588
0.151728
0.0684795
0.0687995
0.0693389
0.0701258
0.0711291
0.0723252
0.0736988
0.075231
0.0769074
0.0787117
0.0806308
0.0826496
0.084756
0.0869359
0.0891778
0.0914684
0.0937965
0.0961497
0.0985178
0.100889
0.103255
0.105604
0.107929
0.110221
0.112472
0.114676
0.116827
0.118919
0.120947
0.122909
0.124801
0.12662
0.128365
0.130035
0.131629
0.133148
0.134592
0.135962
0.137259
0.138485
0.139641
0.140731
0.141756
0.142718
0.143621
0.144467
0.145259
0.145999
0.14669
0.147335
0.147936
0.148497
0.149018
0.149503
0.149954
0.150373
0.150761
0.151122
0.151457
0.151767
0.152054
0.15232
0.152565
0.152793
0.153004
0.153198
0.153379
0.153545
0.153699
0.0676797
0.0679927
0.0685227
0.0692998
0.070289
0.0714705
0.0728284
0.0743455
0.0760073
0.0777993
0.0797084
0.0817212
0.0838256
0.0860089
0.0882593
0.0905648
0.0929145
0.0952966
0.0977006
0.100115
0.102531
0.104938
0.107328
0.10969
0.112019
0.114306
0.116545
0.118729
0.120854
0.122915
0.124908
0.126831
0.128681
0.130455
0.132154
0.133776
0.135322
0.136793
0.138188
0.13951
0.140761
0.141941
0.143054
0.144101
0.145085
0.146009
0.146875
0.147685
0.148443
0.149151
0.149812
0.150428
0.151002
0.151537
0.152034
0.152496
0.152926
0.153325
0.153696
0.154039
0.154356
0.154651
0.154923
0.155176
0.15541
0.155626
0.155827
0.156012
0.156184
0.0667782
0.0670851
0.067605
0.0683695
0.0693419
0.070505
0.0718434
0.0733408
0.0749838
0.0767588
0.0786536
0.0806557
0.082754
0.0849364
0.0871921
0.0895097
0.0918789
0.0942884
0.096728
0.099187
0.101656
0.104124
0.106584
0.109025
0.111439
0.113819
0.116158
0.118448
0.120684
0.122861
0.124974
0.127018
0.128991
0.130891
0.132715
0.134463
0.136133
0.137726
0.139242
0.140682
0.142047
0.143339
0.144559
0.14571
0.146794
0.147813
0.14877
0.149668
0.150508
0.151295
0.152031
0.152718
0.153359
0.153956
0.154512
0.15503
0.155512
0.15596
0.156376
0.156762
0.157119
0.157451
0.157758
0.158043
0.158308
0.158553
0.158779
0.158989
0.159183
0.0657862
0.0660886
0.0665968
0.0673459
0.0682982
0.069439
0.0707532
0.0722262
0.0738451
0.0755975
0.0774722
0.0794578
0.0815438
0.0837197
0.0859752
0.0883001
0.0906844
0.093118
0.0955908
0.0980929
0.100615
0.103146
0.105679
0.108202
0.110709
0.113191
0.115639
0.118047
0.120407
0.122714
0.124961
0.127145
0.12926
0.131304
0.133274
0.135167
0.136982
0.138719
0.140377
0.141955
0.143456
0.14488
0.146228
0.147502
0.148704
0.149837
0.150903
0.151903
0.152842
0.153722
0.154546
0.155316
0.156035
0.156706
0.157332
0.157916
0.158459
0.158965
0.159435
0.159872
0.160278
0.160655
0.161004
0.161329
0.161629
0.161908
0.162167
0.162406
0.162628
0.0647155
0.0650134
0.0655081
0.0662394
0.0671686
0.0682832
0.0695693
0.071013
0.0726027
0.074327
0.0761757
0.0781386
0.0802063
0.0823694
0.0846188
0.0869452
0.0893396
0.0917924
0.0942946
0.0968367
0.0994095
0.102003
0.104609
0.107218
0.109821
0.112409
0.114974
0.117507
0.120001
0.122449
0.124844
0.127181
0.129454
0.131658
0.13379
0.135847
0.137826
0.139725
0.141543
0.14328
0.144936
0.14651
0.148005
0.149421
0.15076
0.152025
0.153218
0.154341
0.155397
0.156388
0.157318
0.15819
0.159005
0.159767
0.160479
0.161143
0.161762
0.162338
0.162875
0.163376
0.16384
0.164271
0.164672
0.165044
0.165389
0.165709
0.166006
0.166282
0.166537
0.0635805
0.0638724
0.0643519
0.0650638
0.065967
0.0670526
0.0683066
0.0697171
0.0712726
0.0729638
0.0747806
0.076715
0.078758
0.0809022
0.0831388
0.0854604
0.0878582
0.0903245
0.0928502
0.0954274
0.0980467
0.1007
0.103377
0.106069
0.108768
0.111464
0.114147
0.116811
0.119444
0.122041
0.124593
0.127093
0.129536
0.131914
0.134224
0.13646
0.13862
0.1407
0.142698
0.144613
0.146443
0.14819
0.149853
0.151433
0.152931
0.154349
0.155689
0.156953
0.158144
0.159263
0.160314
0.161301
0.162225
0.16309
0.163899
0.164655
0.16536
0.166019
0.166633
0.167203
0.167735
0.168229
0.168688
0.169115
0.169512
0.169881
0.170223
0.17054
0.170834
0.0623978
0.0626814
0.0631447
0.0638352
0.0647103
0.0657643
0.066983
0.0683563
0.0698732
0.0715262
0.0733056
0.0752056
0.0772174
0.0793357
0.0815521
0.0838613
0.0862547
0.0887265
0.091268
0.0938728
0.0965312
0.0992363
0.101978
0.10475
0.10754
0.110341
0.113143
0.115936
0.118712
0.121461
0.124176
0.126848
0.129469
0.132033
0.134534
0.136964
0.13932
0.141598
0.143795
0.145907
0.147933
0.149871
0.151722
0.153485
0.155162
0.156753
0.158259
0.159684
0.161029
0.162297
0.163491
0.164613
0.165666
0.166654
0.167579
0.168444
0.169252
0.170008
0.170712
0.171368
0.17198
0.17255
0.17308
0.173573
0.174031
0.174457
0.174853
0.17522
0.175561
0.0611843
0.0614575
0.0619043
0.0625714
0.063417
0.0644368
0.0656174
0.0669498
0.0684242
0.0700339
0.0717709
0.0736301
0.0756043
0.0776891
0.0798776
0.0821653
0.0845456
0.0870134
0.0895614
0.0921834
0.0948716
0.0976191
0.100417
0.103259
0.106134
0.109034
0.111948
0.114869
0.117785
0.120688
0.123568
0.126416
0.129224
0.131982
0.134683
0.137321
0.139888
0.14238
0.144792
0.147119
0.14936
0.151511
0.153571
0.15554
0.157418
0.159204
0.1609
0.162507
0.164027
0.165462
0.166815
0.168088
0.169285
0.170409
0.171463
0.17245
0.173374
0.174238
0.175045
0.1758
0.176502
0.177157
0.177768
0.178336
0.178865
0.179358
0.179815
0.18024
0.180635
0.0599549
0.0602169
0.0606467
0.0612891
0.0621036
0.063087
0.0642269
0.0655151
0.0669431
0.0685052
0.0701945
0.072007
0.0739367
0.0759805
0.0781326
0.0803902
0.0827475
0.0852008
0.0877438
0.0903719
0.093078
0.0958565
0.0986996
0.1016
0.104549
0.107538
0.110558
0.113599
0.116651
0.119704
0.122749
0.125774
0.128771
0.131728
0.134638
0.137492
0.140283
0.143002
0.145644
0.148204
0.150677
0.153059
0.155349
0.157543
0.159641
0.161643
0.163549
0.165359
0.167076
0.168701
0.170237
0.171686
0.173051
0.174335
0.175542
0.176674
0.177735
0.178729
0.179657
0.180522
0.181331
0.182087
0.182791
0.183448
0.184059
0.184627
0.185156
0.185648
0.186106
0.0587213
0.0589722
0.0593845
0.0600008
0.0607829
0.0617277
0.0628245
0.0640654
0.0654436
0.0669536
0.0685903
0.07035
0.0722287
0.0742237
0.0763314
0.078549
0.0808733
0.0833008
0.0858273
0.0884486
0.0911599
0.0939559
0.0968305
0.0997768
0.102787
0.105853
0.108967
0.112118
0.115297
0.118494
0.121698
0.124897
0.128082
0.131241
0.134364
0.13744
0.140462
0.14342
0.146306
0.149114
0.151836
0.154469
0.157009
0.159451
0.161793
0.164035
0.166175
0.168213
0.17015
0.171987
0.173726
0.175369
0.176919
0.17838
0.179754
0.181045
0.182257
0.183392
0.184453
0.185446
0.186376
0.187245
0.188056
0.188812
0.189516
0.190173
0.190784
0.191352
0.191881
0.0574915
0.057732
0.0581256
0.0587151
0.0594633
0.0603679
0.0614194
0.0626104
0.0639353
0.0653893
0.0669686
0.0686701
0.0704915
0.0724305
0.0744855
0.0766543
0.0789352
0.0813257
0.0838233
0.086425
0.0891276
0.0919268
0.0948178
0.0977947
0.100851
0.10398
0.107173
0.110421
0.113715
0.117045
0.120399
0.123765
0.127133
0.130491
0.133828
0.13713
0.140389
0.143594
0.146735
0.149803
0.152791
0.155691
0.158498
0.161207
0.163813
0.166315
0.16871
0.170998
0.173178
0.175251
0.177219
0.179083
0.180846
0.18251
0.184077
0.185553
0.186939
0.188241
0.189459
0.190603
0.191672
0.192672
0.193605
0.194476
0.195288
0.196046
0.196751
0.197408
0.198018
0.0562722
0.0565026
0.0568766
0.0574391
0.058152
0.0590152
0.0600194
0.0611586
0.0624274
0.0638223
0.06534
0.0669788
0.068737
0.0706139
0.0726083
0.0747199
0.0769474
0.0792902
0.0817468
0.084316
0.0869955
0.0897829
0.0926742
0.0956653
0.0987508
0.101925
0.105181
0.10851
0.111903
0.115351
0.118842
0.122365
0.125908
0.129458
0.133004
0.136531
0.140029
0.143485
0.146888
0.150227
0.153493
0.156676
0.159768
0.162764
0.165658
0.168444
0.171121
0.173684
0.176134
0.178468
0.180688
0.182795
0.18479
0.186677
0.188457
0.190136
0.191717
0.193201
0.194594
0.1959
0.197123
0.198268
0.199338
0.200338
0.201272
0.202142
0.202954
0.20371
0.204414
0.05507
0.0552899
0.0556439
0.056179
0.0568562
0.0576772
0.0586329
0.0597188
0.0609293
0.0622625
0.0637154
0.0652877
0.066978
0.068787
0.0707142
0.0727605
0.0749255
0.0772103
0.0796142
0.0821378
0.08478
0.08754
0.0904151
0.0934029
0.0964996
0.0997007
0.103
0.106391
0.109864
0.113412
0.117024
0.120688
0.124392
0.128124
0.13187
0.135617
0.139351
0.143058
0.146727
0.150343
0.153896
0.157373
0.160767
0.164066
0.167265
0.170356
0.173334
0.176195
0.178937
0.181558
0.184057
0.186436
0.188695
0.190836
0.192861
0.194772
0.196574
0.198269
0.199862
0.201357
0.202758
0.20407
0.205298
0.206446
0.207518
0.208518
0.209451
0.21032
0.21113
0.0538908
0.0540998
0.0544339
0.0549413
0.0555826
0.0563607
0.0572675
0.0582987
0.0594498
0.0607191
0.0621049
0.0636071
0.0652257
0.0669616
0.0688156
0.0707893
0.0728836
0.0751003
0.0774406
0.0799059
0.0824969
0.0852138
0.0880561
0.0910226
0.0941112
0.0973188
0.100641
0.104072
0.107605
0.111232
0.114944
0.11873
0.122578
0.126475
0.130408
0.134364
0.138326
0.142281
0.146213
0.150109
0.153954
0.157736
0.161442
0.165061
0.168584
0.172002
0.175307
0.178493
0.181556
0.184492
0.187298
0.189974
0.19252
0.194936
0.197225
0.199389
0.201432
0.203358
0.20517
0.206873
0.208472
0.209971
0.211374
0.212687
0.213915
0.215061
0.216131
0.217128
0.218057
0.0527396
0.0529373
0.0532518
0.0537314
0.0543368
0.0550719
0.0559293
0.0569051
0.0579956
0.0591998
0.0605163
0.061946
0.0634892
0.0651479
0.0669233
0.0688181
0.0708339
0.0729736
0.0752397
0.0776349
0.0801612
0.0828204
0.0856133
0.0885405
0.0916015
0.0947948
0.0981177
0.101566
0.105135
0.108818
0.112607
0.116492
0.120462
0.124505
0.128608
0.132755
0.136933
0.141125
0.145315
0.149488
0.153627
0.157717
0.161745
0.165695
0.169556
0.173317
0.176967
0.180498
0.183904
0.187179
0.19032
0.193324
0.196191
0.198919
0.20151
0.203965
0.206286
0.208476
0.210539
0.21248
0.214303
0.216013
0.217616
0.219116
0.220519
0.22183
0.223053
0.224194
0.225258
0.0516197
0.0518062
0.0521012
0.0525532
0.0531228
0.0538149
0.0546229
0.0555432
0.0565726
0.0577107
0.0589567
0.0603118
0.061777
0.0633548
0.0650473
0.0668574
0.0687881
0.0708429
0.0730257
0.07534
0.0777893
0.0803765
0.0831042
0.0859745
0.0889888
0.0921471
0.0954486
0.0988913
0.102472
0.106185
0.110025
0.113984
0.11805
0.122214
0.126463
0.130782
0.135156
0.13957
0.144006
0.148446
0.152874
0.157273
0.161625
0.165915
0.170127
0.174248
0.178265
0.182167
0.185945
0.18959
0.193096
0.196458
0.199672
0.202736
0.205651
0.208417
0.211038
0.213515
0.215854
0.218059
0.220131
0.222078
0.223904
0.225614
0.227214
0.22871
0.230107
0.23141
0.232625
0.0505338
0.0507094
0.050985
0.0514099
0.0519438
0.0525936
0.0533523
0.0542173
0.0551854
0.0562571
0.0574316
0.0587109
0.0600961
0.0615906
0.0631965
0.0649177
0.0667575
0.068721
0.0708121
0.0730361
0.075397
0.0778994
0.0805472
0.0833442
0.086293
0.0893959
0.0926537
0.0960666
0.0996331
0.10335
0.107214
0.111217
0.115351
0.119608
0.123976
0.12844
0.132987
0.137601
0.142264
0.146958
0.151665
0.156365
0.16104
0.165671
0.170241
0.174733
0.179131
0.18342
0.187589
0.191625
0.195522
0.199271
0.202869
0.20631
0.209593
0.212717
0.215683
0.218489
0.221141
0.223643
0.225998
0.228211
0.230287
0.232234
0.234055
0.235759
0.23735
0.238834
0.240218
0.0494841
0.0496489
0.0499056
0.0503035
0.0508025
0.0514105
0.0521206
0.0529307
0.0538379
0.0548433
0.0559461
0.0571489
0.058453
0.0598622
0.0613789
0.0630077
0.0647524
0.0666189
0.0686117
0.070737
0.0729996
0.0754056
0.07796
0.0806682
0.0835342
0.0865621
0.0897545
0.093114
0.0966408
0.100334
0.104192
0.108209
0.112381
0.116699
0.121154
0.125733
0.130424
0.135211
0.140076
0.145002
0.14997
0.154958
0.159948
0.164917
0.169847
0.174717
0.179508
0.184204
0.188788
0.193246
0.197565
0.201736
0.205748
0.209597
0.213277
0.216781
0.220111
0.223275
0.226271
0.229101
0.231769
0.23428
0.236639
0.238851
0.240923
0.242861
0.244672
0.246362
0.247938
0.0484722
0.0486262
0.0488648
0.049236
0.0497009
0.0502678
0.0509302
0.0516859
0.052533
0.0534724
0.054504
0.0556301
0.0568527
0.0581754
0.0596014
0.0611353
0.0627816
0.0645465
0.0664355
0.068455
0.0706111
0.0729105
0.0753597
0.077965
0.0807321
0.0836667
0.0867735
0.0900566
0.0935186
0.0971608
0.100983
0.104984
0.10916
0.113506
0.118013
0.122673
0.127473
0.1324
0.137437
0.142567
0.147771
0.153027
0.158315
0.163612
0.168895
0.174143
0.179332
0.184443
0.189455
0.19435
0.199113
0.203731
0.208191
0.212485
0.216607
0.220552
0.224307
0.227876
0.231262
0.234464
0.237486
0.240333
0.243008
0.245519
0.247872
0.250073
0.252129
0.254048
0.255837
0.0474989
0.0476427
0.0478634
0.0482088
0.0486402
0.0491671
0.0497828
0.0504851
0.0512731
0.0521474
0.0531084
0.0541583
0.0552994
0.0565352
0.0578696
0.0593069
0.0608527
0.0625128
0.0642937
0.0662018
0.0682443
0.0704286
0.0727622
0.0752522
0.0779063
0.080731
0.0837333
0.0869186
0.0902917
0.093856
0.0976144
0.101567
0.105714
0.110052
0.114575
0.119278
0.124149
0.129178
0.13435
0.139649
0.145057
0.150552
0.156114
0.161719
0.167342
0.172959
0.178546
0.184078
0.189533
0.194888
0.200124
0.20522
0.210161
0.214934
0.219527
0.22393
0.228139
0.232151
0.235963
0.239577
0.242994
0.246217
0.249251
0.252101
0.254773
0.257273
0.259611
0.261791
0.263824
0.0465649
0.0466991
0.046902
0.0472227
0.0476213
0.0481094
0.0486793
0.0493299
0.0500597
0.0508703
0.0517617
0.0527363
0.0537964
0.0549458
0.056188
0.0575285
0.0589721
0.0605255
0.0621948
0.0639876
0.065911
0.0679733
0.0701824
0.0725472
0.0750755
0.0777761
0.0806565
0.0837242
0.0869859
0.0904475
0.0941139
0.0979882
0.102072
0.106366
0.110867
0.115572
0.120474
0.125563
0.130828
0.136255
0.141827
0.147525
0.153327
0.159211
0.165151
0.171121
0.177094
0.183043
0.188941
0.194762
0.200481
0.206075
0.211525
0.216814
0.221926
0.226847
0.231569
0.236083
0.240383
0.244465
0.248329
0.251979
0.255417
0.258648
0.26168
0.264518
0.267171
0.269647
0.271954
0.0456705
0.0457953
0.045981
0.0462779
0.0466445
0.0470953
0.0476207
0.0482208
0.0488939
0.0496424
0.0504655
0.0513662
0.0523462
0.0534101
0.0545609
0.0558044
0.0571454
0.058591
0.060147
0.0618214
0.0636215
0.0655564
0.0676344
0.0698652
0.0722576
0.0748212
0.0775648
0.0804974
0.0836275
0.0869633
0.0905114
0.0942777
0.0982664
0.102481
0.106921
0.111587
0.116475
0.12158
0.126891
0.1324
0.13809
0.143946
0.149947
0.156072
0.162295
0.16859
0.174929
0.181282
0.18762
0.193913
0.200133
0.206252
0.212242
0.21808
0.223744
0.229214
0.234479
0.239528
0.244353
0.248948
0.25331
0.257439
0.261336
0.265004
0.268449
0.271676
0.274694
0.277511
0.280135
0.0448154
0.044931
0.0451004
0.0453741
0.0457101
0.0461247
0.046607
0.0471581
0.0477764
0.0484644
0.0492209
0.0500493
0.0509508
0.0519304
0.0529908
0.0541383
0.055377
0.0567145
0.0581561
0.0597105
0.0613846
0.0631883
0.0651301
0.0672204
0.0694685
0.0718846
0.0744786
0.077261
0.0802418
0.0834309
0.0868368
0.0904677
0.0943306
0.0984311
0.102773
0.107359
0.112189
0.117261
0.12257
0.128108
0.133866
0.139827
0.145978
0.152295
0.158758
0.16534
0.172011
0.178743
0.185502
0.192255
0.19897
0.205614
0.212156
0.218568
0.224824
0.2309
0.236777
0.242435
0.247859
0.253038
0.257965
0.262636
0.267051
0.271212
0.275123
0.278791
0.282221
0.285424
0.288408
0.0439994
0.0441059
0.04426
0.0445111
0.0448178
0.0451973
0.0456383
0.0461421
0.0467073
0.0473366
0.0480285
0.0487862
0.0496112
0.0505082
0.05148
0.0525326
0.0536703
0.0549001
0.0562277
0.0576612
0.059208
0.060878
0.0626802
0.0646252
0.0667224
0.0689828
0.0714168
0.0740365
0.0768527
0.079877
0.0831194
0.0865903
0.0902988
0.0942534
0.0984608
0.102927
0.107655
0.112647
0.117902
0.123416
0.129183
0.135194
0.141435
0.147889
0.154537
0.161354
0.168313
0.175384
0.182534
0.189729
0.196932
0.204108
0.21122
0.21823
0.225106
0.231816
0.23833
0.244627
0.25069
0.256503
0.262055
0.267336
0.272342
0.27707
0.281522
0.285702
0.289614
0.293269
0.296674
0.0432218
0.0433196
0.043459
0.0436883
0.043967
0.0443129
0.0447142
0.0451722
0.0456864
0.0462589
0.0468884
0.0475775
0.0483282
0.0491446
0.0500298
0.0509895
0.0520277
0.0531513
0.0543655
0.0556785
0.0570978
0.0586332
0.060294
0.0620903
0.0640321
0.0661304
0.0683967
0.0708433
0.0734825
0.0763265
0.0793872
0.0826764
0.0862054
0.0899844
0.0940237
0.0983314
0.102915
0.10778
0.11293
0.118365
0.124084
0.130081
0.136349
0.142874
0.149643
0.156633
0.163821
0.171178
0.178672
0.186269
0.193928
0.201612
0.209279
0.216888
0.2244
0.231786
0.239001
0.246016
0.252804
0.259337
0.265596
0.271567
0.277238
0.282606
0.287669
0.292429
0.29689
0.30106
0.304946
0.0424817
0.0425715
0.0426966
0.0429052
0.0431569
0.0434706
0.043834
0.0442479
0.0447131
0.0452309
0.0458003
0.0464229
0.0471018
0.04784
0.0486411
0.04951
0.0504512
0.0514702
0.052573
0.0537664
0.0550592
0.05646
0.0579788
0.0596247
0.0614083
0.0633403
0.0654332
0.067699
0.0701513
0.0728025
0.0756664
0.0787554
0.0820827
0.0856604
0.0895012
0.0936161
0.0980159
0.102709
0.107704
0.113004
0.118614
0.124533
0.130759
0.137285
0.144101
0.151191
0.158536
0.166112
0.173888
0.181833
0.189907
0.198071
0.206283
0.214494
0.222657
0.230729
0.23866
0.246413
0.253954
0.261251
0.268279
0.275015
0.281441
0.287545
0.293318
0.298757
0.303863
0.308641
0.313098
0.0417781
0.0418608
0.0419717
0.0421609
0.0423865
0.0426698
0.0429966
0.0433686
0.0437865
0.0442522
0.0447633
0.0453222
0.0459316
0.0465946
0.0473139
0.0480951
0.0489414
0.0498587
0.0508518
0.0519281
0.0530957
0.0543635
0.0557404
0.0572359
0.0588599
0.0606236
0.062539
0.0646189
0.0668768
0.0693262
0.0719809
0.0748547
0.0779617
0.081316
0.084932
0.0888231
0.0930027
0.0974828
0.102275
0.107387
0.11283
0.118606
0.124719
0.13117
0.137954
0.145062
0.152481
0.160192
0.168171
0.176389
0.184811
0.193395
0.202097
0.210869
0.21966
0.228424
0.237109
0.245667
0.254048
0.262205
0.270098
0.277693
0.284964
0.291893
0.298464
0.304672
0.310513
0.315987
0.321101
0.0411102
0.0411861
0.0412834
0.0414543
0.0416548
0.0419092
0.0422013
0.0425329
0.0429056
0.0433214
0.0437768
0.0442743
0.0448172
0.0454078
0.0460482
0.0467443
0.047499
0.0483171
0.0492037
0.0501651
0.0512103
0.0523468
0.0535837
0.0549296
0.0563945
0.0579889
0.0597253
0.0616159
0.0636749
0.0659154
0.0683521
0.0709989
0.0738711
0.0769838
0.0803528
0.0839933
0.087921
0.0921508
0.0966969
0.101573
0.10679
0.11236
0.11829
0.124588
0.131256
0.138293
0.145692
0.153444
0.161532
0.169932
0.178615
0.187546
0.196682
0.205977
0.215376
0.224821
0.234248
0.243599
0.252816
0.261851
0.270653
0.279182
0.287397
0.295266
0.302763
0.309869
0.316573
0.32287
0.328761
0.0404767
0.0405466
0.0406305
0.0407842
0.0409606
0.0411877
0.0414467
0.0417398
0.0420692
0.0424376
0.0428397
0.0432784
0.0437573
0.0442788
0.0448431
0.0454575
0.0461237
0.0468463
0.0476287
0.0484789
0.0494044
0.0504126
0.0515117
0.0527105
0.0540175
0.0554438
0.0570009
0.0587012
0.0605585
0.0625862
0.0647986
0.0672101
0.0698364
0.0726934
0.0757976
0.0791655
0.0828145
0.0867618
0.091024
0.095617
0.100558
0.105861
0.111541
0.117609
0.124076
0.130948
0.138229
0.145916
0.154003
0.162475
0.171311
0.180482
0.189951
0.199672
0.209593
0.219657
0.229807
0.239977
0.2501
0.260102
0.269918
0.279481
0.288739
0.297648
0.306171
0.314283
0.321962
0.329197
0.335983
0.0398767
0.0399408
0.040012
0.0401494
0.0403028
0.0405041
0.0407318
0.0409879
0.0412762
0.0415995
0.0419507
0.042333
0.0427508
0.0432065
0.0436982
0.0442333
0.0448153
0.0454452
0.0461275
0.0468694
0.0476792
0.0485622
0.0495272
0.0505814
0.0517337
0.0529934
0.054373
0.0558833
0.0575388
0.0593515
0.0613366
0.0635075
0.0658803
0.0684711
0.0712972
0.0743748
0.0777233
0.0813612
0.0853071
0.0895795
0.0941963
0.0991782
0.104543
0.110308
0.116491
0.123106
0.130165
0.137675
0.145641
0.15406
0.16292
0.172207
0.181892
0.191939
0.202302
0.212931
0.223747
0.234679
0.245648
0.25658
0.267399
0.278038
0.288425
0.298497
0.308196
0.317474
0.326295
0.334633
0.342474
0.03931
0.0393667
0.0394258
0.0395494
0.0396815
0.0398566
0.0400544
0.0402748
0.0405249
0.0408064
0.0411091
0.0414384
0.041796
0.0421888
0.0426122
0.0430717
0.0435721
0.0441141
0.0446985
0.0453372
0.0460344
0.0467964
0.047631
0.0485449
0.0495454
0.0506421
0.0518467
0.0531693
0.054624
0.0562224
0.057979
0.0599072
0.0620217
0.06434
0.0668784
0.0696532
0.0726844
0.0759918
0.0795949
0.083513
0.0877678
0.0923793
0.0973714
0.102767
0.108587
0.114854
0.121588
0.128808
0.136527
0.144755
0.153496
0.162746
0.172493
0.182711
0.193361
0.204395
0.215759
0.22739
0.239208
0.251124
0.263041
0.274852
0.286466
0.297798
0.308773
0.319332
0.329423
0.339005
0.348051
0.0387732
0.0388248
0.0388719
0.038982
0.0390926
0.0392446
0.0394131
0.0396019
0.0398151
0.0400543
0.0403112
0.0405909
0.0408931
0.0412255
0.0415842
0.0419696
0.0423928
0.0428502
0.043342
0.043881
0.0444696
0.045115
0.0458236
0.0466017
0.0474546
0.0483924
0.0494259
0.0505641
0.0518209
0.0532071
0.0547366
0.0564223
0.0582765
0.0603193
0.0625648
0.0650281
0.0677307
0.0706913
0.0739304
0.0774712
0.0813284
0.0855303
0.0901007
0.0950665
0.100453
0.106289
0.1126
0.119415
0.126759
0.134654
0.143119
0.152166
0.1618
0.172018
0.182798
0.194103
0.205899
0.218105
0.230636
0.243398
0.256293
0.269226
0.282091
0.29478
0.30719
0.319219
0.330786
0.341824
0.352285
0.0382664
0.0383128
0.0383488
0.0384459
0.0385364
0.0386664
0.0388075
0.0389658
0.0391445
0.0393433
0.0395573
0.0397893
0.0400394
0.0403138
0.0406111
0.0409268
0.0412761
0.0416531
0.0420555
0.0424995
0.0429848
0.0435168
0.0441048
0.0447506
0.0454623
0.0462462
0.0471127
0.0480711
0.0491344
0.0503121
0.0516173
0.0530624
0.0546585
0.0564248
0.058375
0.0605235
0.0628909
0.0654944
0.0683554
0.0714961
0.0749347
0.0786933
0.0828022
0.0872887
0.0921804
0.0975089
0.103308
0.109612
0.116456
0.123875
0.131902
0.140566
0.14989
0.159889
0.170566
0.181906
0.193883
0.206453
0.219559
0.233123
0.247039
0.261165
0.275364
0.289488
0.303407
0.317007
0.330177
0.342828
0.354883
0.0377881
0.0378296
0.0378553
0.03794
0.0380115
0.0381207
0.0382361
0.0383653
0.0385115
0.0386721
0.0388458
0.0390322
0.0392333
0.039452
0.0396909
0.0399406
0.0402197
0.0405195
0.0408383
0.0411912
0.0415783
0.0420026
0.0424742
0.042993
0.0435678
0.0442029
0.044909
0.0456931
0.0465681
0.0475418
0.0486276
0.0498352
0.0511776
0.0526694
0.054325
0.0561589
0.0581885
0.0604289
0.0629017
0.0656329
0.0686322
0.071925
0.0755428
0.0795099
0.0838551
0.0886132
0.0938209
0.0995181
0.105747
0.112553
0.119981
0.128077
0.136884
0.146438
0.156774
0.167919
0.179865
0.192593
0.206051
0.220152
0.234797
0.249879
0.265265
0.28082
0.296371
0.311741
0.326768
0.341302
0.35523
0.0373371
0.0373744
0.0373897
0.0374636
0.0375162
0.0376068
0.0376969
0.0377995
0.0379142
0.0380396
0.0381743
0.0383183
0.0384723
0.0386391
0.0388216
0.0390098
0.0392214
0.039448
0.0396873
0.0399543
0.0402472
0.0405692
0.0409292
0.041327
0.0417702
0.0422627
0.0428138
0.0434301
0.0441225
0.0448988
0.0457706
0.046747
0.0478403
0.0490626
0.0504274
0.0519488
0.0536418
0.05552
0.0576018
0.0599137
0.0624671
0.0652773
0.0683826
0.0718004
0.0755599
0.0796966
0.0842481
0.0892565
0.0947684
0.100836
0.107514
0.114862
0.122941
0.131812
0.141531
0.152153
0.163702
0.176199
0.189646
0.204029
0.219289
0.235316
0.251948
0.268964
0.286169
0.303356
0.320324
0.336898
0.352904
0.0369123
0.0369458
0.036951
0.037015
0.0370495
0.037123
0.0371887
0.0372666
0.0373513
0.0374438
0.0375416
0.0376456
0.0377549
0.037873
0.0380019
0.0381321
0.0382796
0.0384367
0.0386007
0.0387863
0.0389894
0.0392145
0.0394681
0.0397505
0.0400678
0.040424
0.0408264
0.0412815
0.0417982
0.042384
0.0430486
0.043801
0.0446515
0.0456111
0.0466913
0.0479052
0.0492661
0.0507858
0.0524799
0.0543719
0.0564735
0.0587954
0.061374
0.0642225
0.0673694
0.0708477
0.0746928
0.0789468
0.0836567
0.0888775
0.0946699
0.101103
0.108252
0.116195
0.125017
0.134806
0.145639
0.157594
0.170712
0.184988
0.200381
0.216812
0.23418
0.252373
0.271168
0.290321
0.309536
0.328507
0.34699
0.0365126
0.0365422
0.0365383
0.0365929
0.0366102
0.0366678
0.0367104
0.0367652
0.0368216
0.036883
0.036946
0.0370122
0.0370796
0.0371515
0.0372302
0.0373052
0.0373925
0.0374838
0.0375766
0.0376849
0.0378031
0.037936
0.0380886
0.0382612
0.0384589
0.0386849
0.0389454
0.039246
0.0395942
0.0399971
0.0404626
0.0409986
0.0416142
0.0423191
0.043123
0.0440368
0.0450724
0.0462403
0.0475527
0.0490292
0.0506793
0.0525144
0.0545606
0.0568302
0.0593491
0.062145
0.0652493
0.0687005
0.0725431
0.0768304
0.0816235
0.0869951
0.0930278
0.0998151
0.10746
0.116076
0.125773
0.136662
0.148846
0.162424
0.177477
0.194061
0.212114
0.231432
0.251781
0.27282
0.294237
0.315719
0.336895
0.0361369
0.0361628
0.0361503
0.0361959
0.0361972
0.0362399
0.0362607
0.0362937
0.0363234
0.0363557
0.036386
0.0364165
0.0364444
0.0364728
0.0365043
0.0365271
0.0365576
0.036587
0.0366126
0.0366477
0.0366855
0.0367311
0.0367882
0.0368567
0.0369409
0.037043
0.0371684
0.0373217
0.0375092
0.037737
0.0380118
0.0383401
0.0387297
0.0391888
0.0397257
0.040349
0.0410687
0.0418936
0.0428327
0.0439021
0.0451088
0.0464601
0.0479778
0.0496684
0.0515542
0.0536568
0.0560007
0.0586188
0.0615491
0.0648389
0.0685446
0.0727364
0.0774968
0.0829239
0.0891299
0.0962477
0.104426
0.113836
0.124656
0.137061
0.151175
0.167037
0.184698
0.204198
0.225418
0.248194
0.272096
0.296565
0.321094
0.035784
0.0358062
0.0357858
0.035823
0.0358092
0.0358379
0.0358382
0.0358509
0.0358552
0.0358604
0.0358598
0.0358568
0.0358477
0.035835
0.035822
0.0357958
0.0357729
0.0357441
0.0357061
0.0356723
0.0356342
0.0355974
0.0355642
0.035534
0.0355108
0.0354955
0.0354926
0.0355059
0.0355407
0.0356016
0.0356943
0.0358242
0.0359975
0.0362208
0.036501
0.0368447
0.0372597
0.0377528
0.0383296
0.0390026
0.0397763
0.0406564
0.0416538
0.0427725
0.0440299
0.0454393
0.0470176
0.048789
0.0507821
0.0530344
0.0555932
0.0585186
0.0618857
0.0657858
0.0703303
0.075657
0.0819294
0.0893385
0.0980865
0.108397
0.120549
0.134878
0.151645
0.171026
0.193029
0.217246
0.243287
0.27069
0.298723
0.0354527
0.0354717
0.0354438
0.0354731
0.0354451
0.0354607
0.0354416
0.0354354
0.0354157
0.0353957
0.0353659
0.0353315
0.0352876
0.0352364
0.0351813
0.0351094
0.035036
0.0349526
0.0348549
0.0347562
0.0346464
0.034532
0.0344136
0.0342904
0.0341656
0.0340394
0.0339151
0.0337958
0.0336856
0.033588
0.0335077
0.0334486
0.0334156
0.033414
0.0334487
0.0335245
0.0336474
0.0338213
0.034049
0.0343399
0.0346958
0.0351176
0.0356095
0.0361695
0.0368111
0.0375375
0.0383571
0.0392835
0.0403338
0.041532
0.0429118
0.0445178
0.046409
0.0486616
0.0513696
0.054658
0.0586866
0.0636566
0.0698265
0.0775122
0.0870735
0.0988951
0.11329
0.130494
0.150976
0.175223
0.203092
0.233869
0.266643
0.0351422
0.0351579
0.0351233
0.0351448
0.0351039
0.0351069
0.0350697
0.035046
0.0350036
0.0349601
0.0349028
0.0348389
0.0347624
0.0346751
0.0345805
0.0344659
0.034345
0.0342104
0.0340564
0.0338967
0.0337194
0.0335321
0.0333335
0.0331228
0.0329022
0.0326713
0.0324326
0.0321878
0.0319406
0.031693
0.0314487
0.0312102
0.0309814
0.0307658
0.0305668
0.0303873
0.0302312
0.0301002
0.0299939
0.0299182
0.0298713
0.0298565
0.0298585
0.0298787
0.0299238
0.029985
0.0300631
0.0301597
0.0302783
0.0304272
0.0306222
0.0308884
0.0312616
0.0317916
0.0325462
0.0336203
0.0351479
0.0372962
0.0403122
0.0444709
0.0500839
0.0576498
0.0680576
0.0820706
0.100264
0.123851
0.152618
0.186233
0.223706
0.0348513
0.0348639
0.0348231
0.0348373
0.0347843
0.0347756
0.0347215
0.0346812
0.0346175
0.0345521
0.034469
0.0343777
0.0342703
0.0341495
0.0340176
0.0338631
0.0336976
0.0335151
0.0333081
0.0330914
0.0328506
0.0325951
0.0323208
0.0320281
0.0317173
0.031388
0.0310412
0.0306785
0.0303018
0.0299127
0.0295133
0.0291055
0.0286912
0.0282729
0.0278523
0.0274304
0.0270089
0.0265882
0.0261635
0.0257385
0.0253113
0.0248692
0.0244054
0.0239114
0.0233846
0.0228065
0.0221684
0.0214614
0.0206714
0.0197943
0.0188235
0.0177593
0.016608
0.015389
0.0141347
0.0128929
0.0117471
0.0107904
0.0102095
0.0102995
0.0114166
0.0140458
0.0190295
0.0272906
0.0392788
0.0562695
0.0816909
0.11717
0.161138
0.0345791
0.0345887
0.0345424
0.0345493
0.0344854
0.0344653
0.0343957
0.0343398
0.0342564
0.0341703
0.0340632
0.0339461
0.0338098
0.0336578
0.0334909
0.0332992
0.0330918