/*--------------------------------*- C++ -*----------------------------------*\
  =========                 |
  \\      /  F ield         | OpenFOAM: The Open Source CFD Toolbox
   \\    /   O peration     | Website:  https://openfoam.org
    \\  /    A nd           | Version:  10
     \\/     M anipulation  |
\*---------------------------------------------------------------------------*/
FoamFile
{
    format      ascii;
    class       volVectorField;
    location    "0";
    object      U;
}
// * * * * * * * * * * * * * * * * * * * * * * * * * * * * * * * * * * * * * //

dimensions      [0 1 -1 0 0 0 0];

internalField   nonuniform List<vector> 
66268
(
(0.999998 -4.39336e-05 0)
(1.00001 -0.000159854 0)
(0.999996 -0.000258278 0)
(1.00001 -0.000355327 0)
(0.999996 -0.000458511 0)
(1.00001 -0.000550358 0)
(0.999995 -0.000653793 0)
(1.00001 -0.000742555 0)
(0.999995 -0.000846724 0)
(1.00001 -0.0009323 0)
(0.999995 -0.0010364 0)
(1.00001 -0.00111807 0)
(0.999995 -0.00122067 0)
(1.00001 -0.00129732 0)
(0.999995 -0.00139631 0)
(1.00001 -0.0014668 0)
(0.999995 -0.00155792 0)
(1.00001 -0.00162175 0)
(0.999996 -0.00170446 0)
(1.00001 -0.00176062 0)
(0.999996 -0.00183269 0)
(1.00001 -0.00187861 0)
(0.999996 -0.00193957 0)
(1 -0.0019742 0)
(0.999997 -0.00202336 0)
(1 -0.00204668 0)
(0.999997 -0.00208357 0)
(1 -0.00209606 0)
(0.999998 -0.00212068 0)
(1 -0.00212321 0)
(0.999998 -0.00213606 0)
(1 -0.00212978 0)
(0.999998 -0.00213177 0)
(1 -0.002118 0)
(0.999998 -0.00211044 0)
(1 -0.00209058 0)
(0.999998 -0.0020751 0)
(1 -0.00205055 0)
(0.999998 -0.00202886 0)
(0.999999 -0.0020008 0)
(0.999998 -0.00197437 0)
(0.999999 -0.00194355 0)
(0.999998 -0.00191344 0)
(0.999998 -0.00188032 0)
(0.999996 -0.00184726 0)
(0.999994 -0.00181223 0)
(0.999989 -0.0017769 0)
(0.999984 -0.00174057 0)
(0.999976 -0.00170383 0)
(0.999966 -0.00166707 0)
(0.999956 -0.00163003 0)
(0.999946 -0.00159374 0)
(0.999936 -0.00155748 0)
(0.999931 -0.00152224 0)
(0.999925 -0.00148744 0)
(0.999926 -0.00145344 0)
(0.999925 -0.00142023 0)
(0.999926 -0.0013875 0)
(0.999923 -0.00135499 0)
(0.999907 -0.00132054 0)
(0.999837 -0.00129171 0)
(0.99989 -0.00125784 0)
(0.999908 -0.00123551 0)
(0.999926 -0.00120401 0)
(0.999939 -0.00118259 0)
(0.999949 -0.00115403 0)
(0.999957 -0.00113391 0)
(0.999964 -0.00110829 0)
(0.999969 -0.00108971 0)
(1.00019 -0.000130512 0)
(1.00019 -0.000475381 0)
(1.0002 -0.000753969 0)
(1.0002 -0.00105532 0)
(1.00021 -0.00134103 0)
(1.00021 -0.00163449 0)
(1.00022 -0.00191275 0)
(1.00022 -0.00220558 0)
(1.00023 -0.00247836 0)
(1.00023 -0.00276955 0)
(1.00024 -0.00303526 0)
(1.00024 -0.00332189 0)
(1.00025 -0.00357705 0)
(1.00025 -0.00385421 0)
(1.00026 -0.00409345 0)
(1.00025 -0.00435582 0)
(1.00025 -0.00457928 0)
(1.00025 -0.00481932 0)
(1.00024 -0.00501713 0)
(1.00023 -0.00522837 0)
(1.00022 -0.00539885 0)
(1.00021 -0.00558027 0)
(1.0002 -0.00571837 0)
(1.00018 -0.00586695 0)
(1.00016 -0.00597086 0)
(1.00014 -0.00608494 0)
(1.00012 -0.00615465 0)
(1.0001 -0.006234 0)
(1.00007 -0.00627092 0)
(1.00005 -0.00631664 0)
(1.00002 -0.00632339 0)
(0.999994 -0.00633774 0)
(0.999963 -0.00631774 0)
(0.999938 -0.00630379 0)
(0.999907 -0.00626076 0)
(0.999882 -0.00622194 0)
(0.999852 -0.00615943 0)
(0.999827 -0.00609923 0)
(0.999798 -0.00602054 0)
(0.999773 -0.00594264 0)
(0.999744 -0.00585121 0)
(0.999721 -0.00575978 0)
(0.999693 -0.00565934 0)
(0.99967 -0.00555891 0)
(0.999644 -0.00545332 0)
(0.999624 -0.0053482 0)
(0.999601 -0.00524076 0)
(0.999586 -0.0051343 0)
(0.999569 -0.00502732 0)
(0.99956 -0.00492158 0)
(0.999549 -0.00481636 0)
(0.999542 -0.00471247 0)
(0.999534 -0.00460974 0)
(0.999524 -0.0045085 0)
(0.999512 -0.00440894 0)
(0.999496 -0.00431118 0)
(0.999478 -0.00421546 0)
(0.999453 -0.00412176 0)
(0.999433 -0.00403038 0)
(0.999388 -0.00394105 0)
(0.999497 -0.00385419 0)
(0.999447 -0.0037711 0)
(0.99942 -0.00369055 0)
(0.999389 -0.00361332 0)
(0.999368 -0.00353817 0)
(0.999348 -0.00346598 0)
(0.999333 -0.00339588 0)
(0.999319 -0.00332883 0)
(0.999308 -0.00326404 0)
(1.00057 -0.000215612 0)
(1.00058 -0.000769213 0)
(1.00058 -0.00122548 0)
(1.00061 -0.00170703 0)
(1.0006 -0.00218388 0)
(1.00064 -0.00264445 0)
(1.00064 -0.00311622 0)
(1.00068 -0.00357068 0)
(1.00068 -0.00404003 0)
(1.00072 -0.00448713 0)
(1.00071 -0.00495143 0)
(1.00075 -0.00538702 0)
(1.00074 -0.00584038 0)
(1.00077 -0.00625813 0)
(1.00075 -0.00669275 0)
(1.00077 -0.00708438 0)
(1.00075 -0.00748763 0)
(1.00076 -0.00784588 0)
(1.00072 -0.00821204 0)
(1.00072 -0.00853006 0)
(1.00066 -0.00884965 0)
(1.00065 -0.0091182 0)
(1.00058 -0.0093866 0)
(1.00055 -0.00960118 0)
(1.00048 -0.00981487 0)
(1.00044 -0.00997341 0)
(1.00036 -0.0101308 0)
(1.0003 -0.0102338 0)
(1.00022 -0.0103356 0)
(1.00015 -0.0103857 0)
(1.00006 -0.0104347 0)
(0.999994 -0.0104362 0)
(0.999903 -0.0104367 0)
(0.99983 -0.0103952 0)
(0.99974 -0.0103527 0)
(0.999665 -0.0102746 0)
(0.999577 -0.0101956 0)
(0.999502 -0.0100878 0)
(0.999418 -0.00997933 0)
(0.999345 -0.00984878 0)
(0.999266 -0.00971775 0)
(0.999196 -0.00957053 0)
(0.999121 -0.00942273 0)
(0.999055 -0.00926343 0)
(0.998985 -0.00910328 0)
(0.998922 -0.0089353 0)
(0.998857 -0.00876648 0)
(0.998796 -0.00859289 0)
(0.998734 -0.00841903 0)
(0.998674 -0.00824313 0)
(0.998615 -0.00806798 0)
(0.998559 -0.00789314 0)
(0.998505 -0.00772017 0)
(0.998458 -0.00754918 0)
(0.998414 -0.007381 0)
(0.998377 -0.00721564 0)
(0.998342 -0.00705373 0)
(0.998307 -0.00689479 0)
(0.99827 -0.00673962 0)
(0.998223 -0.00658819 0)
(0.998141 -0.00644171 0)
(0.998183 -0.00629955 0)
(0.998185 -0.00616282 0)
(0.99818 -0.00603061 0)
(0.998172 -0.00590398 0)
(0.998162 -0.00578195 0)
(0.99815 -0.00566517 0)
(0.99814 -0.00555297 0)
(0.99813 -0.00544581 0)
(1.00109 -0.000294927 0)
(1.0011 -0.00104705 0)
(1.00112 -0.00166022 0)
(1.00114 -0.0023268 0)
(1.00117 -0.00296355 0)
(1.00121 -0.00360566 0)
(1.00124 -0.0042318 0)
(1.00128 -0.00487236 0)
(1.00132 -0.00549134 0)
(1.00136 -0.00612887 0)
(1.00139 -0.00673793 0)
(1.00142 -0.00736684 0)
(1.00144 -0.00795855 0)
(1.00146 -0.00856957 0)
(1.00147 -0.0091336 0)
(1.00147 -0.0097142 0)
(1.00145 -0.0102423 0)
(1.00144 -0.0107787 0)
(1.0014 -0.0112567 0)
(1.00136 -0.0117365 0)
(1.0013 -0.0121548 0)
(1.00123 -0.0125701 0)
(1.00115 -0.0129186 0)
(1.00106 -0.0132627 0)
(1.00095 -0.0135359 0)
(1.00084 -0.0138042 0)
(1.00071 -0.0140003 0)
(1.00059 -0.0141917 0)
(1.00045 -0.0143121 0)
(1.00031 -0.0144282 0)
(1.00016 -0.0144771 0)
(1.00001 -0.0145224 0)
(0.999851 -0.0145063 0)
(0.999701 -0.0144873 0)
(0.99954 -0.0144143 0)
(0.99939 -0.0143387 0)
(0.999232 -0.0142172 0)
(0.999085 -0.0140934 0)
(0.998933 -0.0139319 0)
(0.998791 -0.0137679 0)
(0.998646 -0.0135742 0)
(0.998512 -0.0133782 0)
(0.998377 -0.0131602 0)
(0.998252 -0.0129406 0)
(0.998127 -0.0127061 0)
(0.998013 -0.0124715 0)
(0.997901 -0.0122282 0)
(0.9978 -0.0119863 0)
(0.997702 -0.0117404 0)
(0.997616 -0.0114969 0)
(0.997532 -0.0112529 0)
(0.997458 -0.0110119 0)
(0.997385 -0.0107726 0)
(0.997314 -0.0105369 0)
(0.997243 -0.0103046 0)
(0.997168 -0.0100765 0)
(0.997094 -0.00985297 0)
(0.997011 -0.00963474 0)
(0.996936 -0.00942215 0)
(0.996846 -0.00921597 0)
(0.996915 -0.00901567 0)
(0.996829 -0.0088224 0)
(0.996771 -0.00863494 0)
(0.996712 -0.00845433 0)
(0.996662 -0.00827945 0)
(0.996615 -0.00811125 0)
(0.996573 -0.007949 0)
(0.996534 -0.00779344 0)
(0.996499 -0.00764401 0)
(1.00169 -0.000369583 0)
(1.00172 -0.00129996 0)
(1.00174 -0.0020715 0)
(1.00179 -0.00289621 0)
(1.00182 -0.00370201 0)
(1.0019 -0.00449007 0)
(1.00193 -0.00529084 0)
(1.00201 -0.00607333 0)
(1.00205 -0.0068728 0)
(1.00214 -0.00764893 0)
(1.00216 -0.00844426 0)
(1.00224 -0.00920788 0)
(1.00225 -0.00999011 0)
(1.00231 -0.0107308 0)
(1.0023 -0.0114875 0)
(1.00233 -0.0121911 0)
(1.00229 -0.0129025 0)
(1.00229 -0.0135556 0)
(1.00221 -0.0142102 0)
(1.00218 -0.0147994 0)
(1.00206 -0.0153805 0)
(1.00199 -0.0158896 0)
(1.00183 -0.0163874 0)
(1.00172 -0.0168065 0)
(1.00153 -0.0172127 0)
(1.00138 -0.017536 0)
(1.00117 -0.0178462 0)
(1.00099 -0.018072 0)
(1.00076 -0.0182856 0)
(1.00055 -0.0184163 0)
(1.0003 -0.0185365 0)
(1.00008 -0.0185781 0)
(0.999821 -0.0186111 0)
(0.999588 -0.018572 0)
(0.99933 -0.0185266 0)
(0.999093 -0.0184171 0)
(0.998839 -0.0183033 0)
(0.998604 -0.0181348 0)
(0.998358 -0.0179639 0)
(0.99813 -0.0177483 0)
(0.997897 -0.017532 0)
(0.997679 -0.017281 0)
(0.99746 -0.0170305 0)
(0.997254 -0.0167542 0)
(0.99705 -0.016479 0)
(0.996857 -0.0161853 0)
(0.996668 -0.015893 0)
(0.996487 -0.0155884 0)
(0.996311 -0.0152857 0)
(0.996142 -0.0149761 0)
(0.995977 -0.0146694 0)
(0.995821 -0.0143606 0)
(0.995671 -0.014056 0)
(0.995532 -0.0137528 0)
(0.9954 -0.013455 0)
(0.99528 -0.013161 0)
(0.995166 -0.0128733 0)
(0.995061 -0.0125909 0)
(0.994958 -0.0123151 0)
(0.994855 -0.0120457 0)
(0.99472 -0.0117837 0)
(0.994711 -0.0115292 0)
(0.994663 -0.0112834 0)
(0.994607 -0.0110459 0)
(0.994552 -0.0108174 0)
(0.994498 -0.0105972 0)
(0.994446 -0.0103859 0)
(0.994399 -0.0101827 0)
(0.994354 -0.00998803 0)
(1.00238 -0.000437418 0)
(1.0024 -0.00153718 0)
(1.00244 -0.00244684 0)
(1.0025 -0.00343389 0)
(1.00256 -0.00437656 0)
(1.00264 -0.00532651 0)
(1.00272 -0.00626107 0)
(1.00282 -0.00721218 0)
(1.0029 -0.00814279 0)
(1.00299 -0.00909534 0)
(1.00307 -0.0100197 0)
(1.00315 -0.0109671 0)
(1.00321 -0.0118755 0)
(1.00326 -0.012805 0)
(1.00329 -0.0136827 0)
(1.00331 -0.0145771 0)
(1.00329 -0.015411 0)
(1.00326 -0.0162503 0)
(1.0032 -0.0170187 0)
(1.00312 -0.0177829 0)
(1.003 -0.01847 0)
(1.00287 -0.0191456 0)
(1.00269 -0.0197343 0)
(1.00251 -0.0203082 0)
(1.00228 -0.0207872 0)
(1.00204 -0.0212501 0)
(1.00177 -0.0216134 0)
(1.00149 -0.0219607 0)
(1.00119 -0.0222073 0)
(1.00087 -0.0224393 0)
(1.00054 -0.0225727 0)
(1.0002 -0.0226939 0)
(0.999849 -0.0227218 0)
(0.999501 -0.0227404 0)
(0.999139 -0.0226734 0)
(0.998787 -0.0226 0)
(0.998426 -0.0224507 0)
(0.998078 -0.0222976 0)
(0.997726 -0.0220791 0)
(0.997388 -0.0218591 0)
(0.99705 -0.0215846 0)
(0.996727 -0.0213101 0)
(0.996408 -0.020992 0)
(0.996104 -0.0206755 0)
(0.995807 -0.020326 0)
(0.995526 -0.0199801 0)
(0.995253 -0.0196113 0)
(0.994999 -0.0192479 0)
(0.994754 -0.0188705 0)
(0.994528 -0.0184995 0)
(0.994311 -0.0181212 0)
(0.994111 -0.0177498 0)
(0.993919 -0.0173762 0)
(0.993736 -0.0170097 0)
(0.993558 -0.0166449 0)
(0.993381 -0.0162876 0)
(0.99321 -0.0159349 0)
(0.993032 -0.0155907 0)
(0.992867 -0.0152539 0)
(0.992693 -0.0149268 0)
(0.992682 -0.0146101 0)
(0.992527 -0.0143023 0)
(0.992412 -0.0140042 0)
(0.992296 -0.0137149 0)
(0.992194 -0.0134356 0)
(0.992096 -0.0131659 0)
(0.992005 -0.0129061 0)
(0.991919 -0.0126564 0)
(0.991838 -0.0124167 0)
(1.00311 -0.000501799 0)
(1.00315 -0.00175178 0)
(1.00319 -0.00279963 0)
(1.00329 -0.00392109 0)
(1.00335 -0.00501104 0)
(1.00348 -0.00608591 0)
(1.00357 -0.00717618 0)
(1.00372 -0.00824948 0)
(1.00381 -0.0093446 0)
(1.00397 -0.0104184 0)
(1.00405 -0.0115169 0)
(1.00419 -0.0125846 0)
(1.00425 -0.0136763 0)
(1.00436 -0.014725 0)
(1.00438 -0.0157941 0)
(1.00444 -0.0168062 0)
(1.0044 -0.0178282 0)
(1.00441 -0.0187842 0)
(1.00431 -0.019741 0)
(1.00424 -0.0206206 0)
(1.00407 -0.021489 0)
(1.00393 -0.0222691 0)
(1.00369 -0.0230325 0)
(1.00347 -0.0236961 0)
(1.00316 -0.0243397 0)
(1.00287 -0.0248748 0)
(1.0025 -0.0253888 0)
(1.00215 -0.0257889 0)
(1.00173 -0.026169 0)
(1.00133 -0.0264336 0)
(1.00087 -0.0266807 0)
(1.00043 -0.0268144 0)
(0.999946 -0.0269345 0)
(0.999484 -0.0269465 0)
(0.998987 -0.0269494 0)
(0.998514 -0.0268524 0)
(0.998018 -0.0267509 0)
(0.997545 -0.0265599 0)
(0.99706 -0.0263688 0)
(0.996598 -0.0261 0)
(0.996133 -0.025835 0)
(0.995689 -0.0255051 0)
(0.995248 -0.0251823 0)
(0.994828 -0.0248069 0)
(0.994415 -0.0244407 0)
(0.994023 -0.0240332 0)
(0.993641 -0.0236355 0)
(0.993277 -0.0232063 0)
(0.992924 -0.0227872 0)
(0.992586 -0.0223458 0)
(0.99226 -0.0219149 0)
(0.991949 -0.0214704 0)
(0.991652 -0.021037 0)
(0.991372 -0.0205974 0)
(0.991105 -0.0201693 0)
(0.990857 -0.0197409 0)
(0.990622 -0.0193246 0)
(0.990408 -0.0189123 0)
(0.990205 -0.0185114 0)
(0.990017 -0.0181189 0)
(0.989803 -0.0177315 0)
(0.989704 -0.0173594 0)
(0.989571 -0.0169954 0)
(0.989436 -0.0166473 0)
(0.989306 -0.0163083 0)
(0.989184 -0.0159839 0)
(0.989069 -0.0156695 0)
(0.988964 -0.0153692 0)
(0.988866 -0.0150795 0)
(1.00391 -0.000560828 0)
(1.00395 -0.00195332 0)
(1.00401 -0.00311668 0)
(1.00411 -0.0043778 0)
(1.00422 -0.00558209 0)
(1.00437 -0.00679913 0)
(1.00451 -0.0080024 0)
(1.00468 -0.00922669 0)
(1.00483 -0.010434 0)
(1.005 -0.0116697 0)
(1.00515 -0.0128808 0)
(1.00531 -0.014122 0)
(1.00542 -0.0153268 0)
(1.00554 -0.0165597 0)
(1.00561 -0.017741 0)
(1.00567 -0.0189452 0)
(1.00568 -0.0200866 0)
(1.00566 -0.0212371 0)
(1.00559 -0.0223107 0)
(1.00549 -0.0233813 0)
(1.00532 -0.0243646 0)
(1.00513 -0.025335 0)
(1.00487 -0.0262032 0)
(1.00458 -0.0270529 0)
(1.00422 -0.0277872 0)
(1.00384 -0.0285001 0)
(1.00341 -0.0290875 0)
(1.00295 -0.0296527 0)
(1.00244 -0.0300867 0)
(1.00191 -0.0304999 0)
(1.00134 -0.0307801 0)
(1.00077 -0.031043 0)
(1.00016 -0.031175 0)
(0.99955 -0.0312948 0)
(0.998922 -0.0312895 0)
(0.998297 -0.0312776 0)
(0.997664 -0.0311492 0)
(0.99704 -0.0310204 0)
(0.996416 -0.0307856 0)
(0.995805 -0.030556 0)
(0.9952 -0.0302325 0)
(0.994612 -0.0299189 0)
(0.994037 -0.0295236 0)
(0.993482 -0.0291424 0)
(0.992942 -0.0286925 0)
(0.992425 -0.0282604 0)
(0.991925 -0.0277732 0)
(0.991451 -0.0273072 0)
(0.990996 -0.026799 0)
(0.990568 -0.0263141 0)
(0.990159 -0.0257981 0)
(0.989776 -0.0253056 0)
(0.98941 -0.0247914 0)
(0.989061 -0.0242996 0)
(0.988727 -0.0237943 0)
(0.988402 -0.0233098 0)
(0.988091 -0.022819 0)
(0.987781 -0.0223474 0)
(0.987488 -0.0218768 0)
(0.987182 -0.0214173 0)
(0.987038 -0.0209862 0)
(0.986794 -0.0205476 0)
(0.98659 -0.0201382 0)
(0.98639 -0.0197234 0)
(0.986204 -0.0193373 0)
(0.986029 -0.018951 0)
(0.985865 -0.0185902 0)
(0.985709 -0.0182316 0)
(0.98556 -0.0178954 0)
(1.00475 -0.000617098 0)
(1.00481 -0.00213336 0)
(1.00487 -0.00341257 0)
(1.00501 -0.00478509 0)
(1.00513 -0.00611565 0)
(1.00533 -0.00743637 0)
(1.00549 -0.00877666 0)
(1.00572 -0.0101029 0)
(1.00589 -0.0114586 0)
(1.00614 -0.0127971 0)
(1.0063 -0.0141696 0)
(1.00653 -0.0155155 0)
(1.00666 -0.0168955 0)
(1.00685 -0.0182354 0)
(1.00692 -0.0196063 0)
(1.00705 -0.0209208 0)
(1.00704 -0.0222545 0)
(1.00708 -0.0235201 0)
(1.00698 -0.0247941 0)
(1.0069 -0.0259854 0)
(1.00669 -0.0271701 0)
(1.0065 -0.028256 0)
(1.00618 -0.0293277 0)
(1.00587 -0.0302832 0)
(1.00543 -0.0312191 0)
(1.005 -0.0320239 0)
(1.00446 -0.0328063 0)
(1.00392 -0.0334462 0)
(1.00329 -0.0340636 0)
(1.00266 -0.0345312 0)
(1.00195 -0.0349792 0)
(1.00126 -0.0352745 0)
(1.0005 -0.0355551 0)
(0.999751 -0.0356845 0)
(0.998959 -0.0358061 0)
(0.998188 -0.0357816 0)
(0.997386 -0.0357574 0)
(0.996608 -0.0355953 0)
(0.995813 -0.0354421 0)
(0.995046 -0.0351617 0)
(0.994275 -0.0348987 0)
(0.993532 -0.034521 0)
(0.992795 -0.0341691 0)
(0.992088 -0.0337156 0)
(0.991393 -0.0332949 0)
(0.990729 -0.0327853 0)
(0.990081 -0.0323131 0)
(0.989464 -0.0317634 0)
(0.988865 -0.0312537 0)
(0.988294 -0.0306775 0)
(0.987742 -0.0301432 0)
(0.987215 -0.0295535 0)
(0.98671 -0.0290071 0)
(0.986232 -0.028417 0)
(0.985778 -0.0278693 0)
(0.985349 -0.027289 0)
(0.984944 -0.0267491 0)
(0.984566 -0.0261879 0)
(0.984215 -0.0256638 0)
(0.98391 -0.0251327 0)
(0.983631 -0.0246202 0)
(0.983352 -0.0241172 0)
(0.983094 -0.0236309 0)
(0.982849 -0.0231574 0)
(0.982617 -0.0226996 0)
(0.982398 -0.0222562 0)
(0.982189 -0.0218285 0)
(0.981993 -0.0214163 0)
(0.981798 -0.0210205 0)
(1.00562 -0.000668662 0)
(1.00568 -0.00229784 0)
(1.00577 -0.00367955 0)
(1.00592 -0.00515774 0)
(1.00609 -0.00659747 0)
(1.00631 -0.0080206 0)
(1.00653 -0.00947791 0)
(1.00678 -0.0109092 0)
(1.00703 -0.0123901 0)
(1.0073 -0.0138395 0)
(1.00754 -0.0153472 0)
(1.00779 -0.0168114 0)
(1.008 -0.0183373 0)
(1.0082 -0.0198039 0)
(1.00835 -0.0213306 0)
(1.00848 -0.0227785 0)
(1.00854 -0.0242874 0)
(1.00856 -0.0256898 0)
(1.00851 -0.0271483 0)
(1.00841 -0.0284745 0)
(1.00823 -0.0298537 0)
(1.00799 -0.0310783 0)
(1.00767 -0.0323444 0)
(1.00729 -0.0334399 0)
(1.00682 -0.0345644 0)
(1.0063 -0.0355068 0)
(1.0057 -0.0364664 0)
(1.00505 -0.0372372 0)
(1.00433 -0.0380154 0)
(1.00357 -0.0386031 0)
(1.00275 -0.0391907 0)
(1.0019 -0.0395915 0)
(1.00101 -0.0399876 0)
(1.00009 -0.040205 0)
(0.999152 -0.0404158 0)
(0.998199 -0.0404601 0)
(0.997236 -0.040498 0)
(0.996271 -0.0403846 0)
(0.995309 -0.0402669 0)
(0.994353 -0.040015 0)
(0.99341 -0.0397619 0)
(0.992483 -0.0393928 0)
(0.991576 -0.039025 0)
(0.990691 -0.0385596 0)
(0.989834 -0.0380984 0)
(0.989003 -0.037558 0)
(0.988203 -0.0370253 0)
(0.987433 -0.036432 0)
(0.986698 -0.0358504 0)
(0.985995 -0.0352254 0)
(0.985329 -0.0346149 0)
(0.984694 -0.0339754 0)
(0.984092 -0.0333513 0)
(0.983518 -0.0327099 0)
(0.982966 -0.0320838 0)
(0.982438 -0.0314508 0)
(0.981934 -0.0308337 0)
(0.981455 -0.0302172 0)
(0.980995 -0.0296153 0)
(0.980521 -0.0290204 0)
(0.980188 -0.0284393 0)
(0.979827 -0.0278735 0)
(0.97948 -0.027322 0)
(0.97915 -0.0267875 0)
(0.978841 -0.026268 0)
(0.978549 -0.0257661 0)
(0.978277 -0.0252803 0)
(0.978021 -0.0248126 0)
(0.977784 -0.0243619 0)
(1.0065 -0.000714857 0)
(1.00658 -0.00244804 0)
(1.00668 -0.00391719 0)
(1.00687 -0.00549898 0)
(1.00706 -0.00702695 0)
(1.00733 -0.00855631 0)
(1.00757 -0.0101053 0)
(1.0079 -0.0116505 0)
(1.00817 -0.0132274 0)
(1.00852 -0.0148016 0)
(1.00879 -0.0164119 0)
(1.00912 -0.0180134 0)
(1.00936 -0.0196505 0)
(1.00964 -0.0212683 0)
(1.00981 -0.0229166 0)
(1.01001 -0.0245319 0)
(1.01009 -0.0261623 0)
(1.01017 -0.0277504 0)
(1.01012 -0.0293377 0)
(1.01006 -0.0308696 0)
(1.00986 -0.0323792 0)
(1.00964 -0.0338178 0)
(1.00928 -0.0352191 0)
(1.00889 -0.0365313 0)
(1.00836 -0.037793 0)
(1.0078 -0.038949 0)
(1.00711 -0.0400434 0)
(1.00639 -0.0410191 0)
(1.00555 -0.0419246 0)
(1.00469 -0.0427029 0)
(1.00373 -0.0434056 0)
(1.00275 -0.0439777 0)
(1.00169 -0.0444722 0)
(1.00063 -0.0448378 0)
(0.999507 -0.0451269 0)
(0.998384 -0.0452935 0)
(0.997228 -0.0453876 0)
(0.99608 -0.0453698 0)
(0.994917 -0.0452856 0)
(0.993772 -0.045103 0)
(0.992628 -0.0448613 0)
(0.991508 -0.044537 0)
(0.990403 -0.0441625 0)
(0.989327 -0.0437223 0)
(0.988275 -0.0432413 0)
(0.987258 -0.0427109 0)
(0.986271 -0.0421478 0)
(0.98532 -0.0415492 0)
(0.984403 -0.0409245 0)
(0.98352 -0.0402759 0)
(0.982673 -0.0396076 0)
(0.981857 -0.0389257 0)
(0.981078 -0.0382316 0)
(0.980336 -0.0375334 0)
(0.979631 -0.0368306 0)
(0.978968 -0.0361306 0)
(0.978339 -0.0354318 0)
(0.977746 -0.0347426 0)
(0.977182 -0.0340609 0)
(0.976687 -0.0333935 0)
(0.97623 -0.03274 0)
(0.975797 -0.0320947 0)
(0.975384 -0.0314712 0)
(0.974993 -0.0308589 0)
(0.974622 -0.030269 0)
(0.974272 -0.0296936 0)
(0.97394 -0.0291403 0)
(0.973631 -0.0286033 0)
(0.97333 -0.0280885 0)
(1.0074 -0.000757155 0)
(1.00748 -0.0025802 0)
(1.00761 -0.00413474 0)
(1.00781 -0.00580059 0)
(1.00805 -0.00742013 0)
(1.00834 -0.009031 0)
(1.00865 -0.0106808 0)
(1.00901 -0.0123101 0)
(1.00935 -0.0139978 0)
(1.00973 -0.015662 0)
(1.01009 -0.0173954 0)
(1.01046 -0.0190955 0)
(1.01078 -0.0208697 0)
(1.0111 -0.0225962 0)
(1.01135 -0.0243958 0)
(1.01158 -0.0261293 0)
(1.01173 -0.0279371 0)
(1.01184 -0.0296504 0)
(1.01184 -0.0314321 0)
(1.01179 -0.0330919 0)
(1.01163 -0.0348148 0)
(1.0114 -0.0363914 0)
(1.01105 -0.0380152 0)
(1.01062 -0.039474 0)
(1.01008 -0.0409617 0)
(1.00945 -0.0422693 0)
(1.00872 -0.0435872 0)
(1.0079 -0.0447145 0)
(1.00699 -0.045835 0)
(1.006 -0.0467593 0)
(1.00493 -0.0476623 0)
(1.0038 -0.0483693 0)
(1.0026 -0.0490439 0)
(1.00136 -0.049528 0)
(1.00007 -0.0499729 0)
(0.998755 -0.0502377 0)
(0.997414 -0.0504601 0)
(0.996058 -0.0505169 0)
(0.994697 -0.0505319 0)
(0.993335 -0.0503987 0)
(0.991983 -0.0502275 0)
(0.990645 -0.0499271 0)
(0.98933 -0.0495938 0)
(0.98804 -0.0491506 0)
(0.986783 -0.0486807 0)
(0.98556 -0.0481197 0)
(0.984376 -0.0475401 0)
(0.983232 -0.0468882 0)
(0.982135 -0.0462275 0)
(0.98108 -0.045513 0)
(0.980076 -0.0447991 0)
(0.979116 -0.044047 0)
(0.978204 -0.0433025 0)
(0.977334 -0.0425318 0)
(0.976499 -0.0417731 0)
(0.975699 -0.0410001 0)
(0.974939 -0.0402439 0)
(0.974219 -0.03948 0)
(0.973551 -0.038738 0)
(0.97285 -0.0379955 0)
(0.972301 -0.0372605 0)
(0.971741 -0.0365616 0)
(0.97121 -0.0358566 0)
(0.970707 -0.0351885 0)
(0.970235 -0.0345214 0)
(0.969789 -0.0338891 0)
(0.969372 -0.0332628 0)
(0.968981 -0.0326709 0)
(0.968622 -0.0320897 0)
(1.00829 -0.000794196 0)
(1.00839 -0.00270065 0)
(1.00853 -0.00432478 0)
(1.00877 -0.00607608 0)
(1.00902 -0.00776416 0)
(1.00937 -0.00946515 0)
(1.00971 -0.0111861 0)
(1.01014 -0.0129145 0)
(1.01052 -0.0146774 0)
(1.01098 -0.0164531 0)
(1.01138 -0.0182684 0)
(1.01183 -0.0200945 0)
(1.0122 -0.0219599 0)
(1.01261 -0.0238294 0)
(1.01291 -0.0257326 0)
(1.01322 -0.02763 0)
(1.01341 -0.0295433 0)
(1.01359 -0.0314448 0)
(1.01362 -0.0333433 0)
(1.01363 -0.0352196 0)
(1.01348 -0.0370662 0)
(1.01328 -0.0388759 0)
(1.01293 -0.0406355 0)
(1.01251 -0.0423393 0)
(1.01194 -0.0439728 0)
(1.01129 -0.0455319 0)
(1.01049 -0.0470017 0)
(1.00962 -0.0483807 0)
(1.00861 -0.0496536 0)
(1.00753 -0.0508231 0)
(1.00634 -0.0518731 0)
(1.00508 -0.0528118 0)
(1.00373 -0.0536215 0)
(1.00233 -0.0543176 0)
(1.00086 -0.0548798 0)
(0.999358 -0.0553317 0)
(0.997812 -0.0556491 0)
(0.99625 -0.0558647 0)
(0.994667 -0.0559496 0)
(0.993086 -0.0559453 0)
(0.991503 -0.055817 0)
(0.989938 -0.0556153 0)
(0.988388 -0.0552999 0)
(0.986868 -0.0549289 0)
(0.985377 -0.0544567 0)
(0.983924 -0.0539477 0)
(0.982511 -0.0533502 0)
(0.981143 -0.0527326 0)
(0.979822 -0.0520374 0)
(0.978545 -0.0513359 0)
(0.977318 -0.0505668 0)
(0.976133 -0.0498033 0)
(0.975 -0.0489835 0)
(0.973915 -0.0481806 0)
(0.972881 -0.0473353 0)
(0.971914 -0.0465152 0)
(0.970998 -0.0456623 0)
(0.97013 -0.0448374 0)
(0.969237 -0.0439916 0)
(0.968536 -0.0431792 0)
(0.967853 -0.0423667 0)
(0.9672 -0.0415774 0)
(0.966581 -0.0407931 0)
(0.965991 -0.0400364 0)
(0.965435 -0.0392926 0)
(0.964912 -0.0385755 0)
(0.96442 -0.0378763 0)
(0.963966 -0.037204 0)
(0.963541 -0.036552 0)
(1.00917 -0.000827282 0)
(1.00928 -0.00280784 0)
(1.00944 -0.00449324 0)
(1.0097 -0.00632178 0)
(1.01 -0.00806931 0)
(1.01038 -0.00985306 0)
(1.01078 -0.0116353 0)
(1.01125 -0.0134563 0)
(1.01171 -0.0152837 0)
(1.01221 -0.017165 0)
(1.0127 -0.0190507 0)
(1.0132 -0.0209983 0)
(1.01366 -0.0229426 0)
(1.01412 -0.0249516 0)
(1.01451 -0.0269438 0)
(1.01487 -0.0289979 0)
(1.01514 -0.0310249 0)
(1.01537 -0.0330989 0)
(1.01548 -0.0351286 0)
(1.01552 -0.0371887 0)
(1.01544 -0.0391885 0)
(1.01526 -0.0412026 0)
(1.01494 -0.0431292 0)
(1.01452 -0.045057 0)
(1.01395 -0.0468678 0)
(1.01327 -0.0486667 0)
(1.01245 -0.0503198 0)
(1.01152 -0.0519489 0)
(1.01045 -0.0534055 0)
(1.00928 -0.0548283 0)
(1.00798 -0.0560561 0)
(1.00659 -0.0572433 0)
(1.00511 -0.0582186 0)
(1.00354 -0.0591504 0)
(1.0019 -0.05986 0)
(1.00021 -0.0605271 0)
(0.998463 -0.0609691 0)
(0.996683 -0.0613729 0)
(0.994879 -0.0615556 0)
(0.993061 -0.0617075 0)
(0.991239 -0.0616495 0)
(0.989425 -0.0615698 0)
(0.987628 -0.0612956 0)
(0.985856 -0.0610093 0)
(0.984116 -0.0605479 0)
(0.982417 -0.0600826 0)
(0.980762 -0.059465 0)
(0.979156 -0.0588516 0)
(0.977605 -0.0581118 0)
(0.976111 -0.0573853 0)
(0.974676 -0.0565595 0)
(0.973305 -0.0557548 0)
(0.971996 -0.0548753 0)
(0.970748 -0.0540201 0)
(0.969555 -0.0531114 0)
(0.968408 -0.0522264 0)
(0.967309 -0.0513068 0)
(0.966215 -0.0503997 0)
(0.96531 -0.0495143 0)
(0.964362 -0.0486145 0)
(0.963502 -0.0477496 0)
(0.962683 -0.0468686 0)
(0.961911 -0.0460287 0)
(0.961183 -0.0451844 0)
(0.960499 -0.04438 0)
(0.959857 -0.0435791 0)
(0.959257 -0.0428165 0)
(0.958693 -0.0420622 0)
(0.958161 -0.0413442 0)
(1.01004 -0.000857929 0)
(1.01016 -0.00289918 0)
(1.01034 -0.00464716 0)
(1.01063 -0.00653151 0)
(1.01096 -0.00834828 0)
(1.0114 -0.0101846 0)
(1.01183 -0.0120468 0)
(1.01236 -0.0139211 0)
(1.01287 -0.0158403 0)
(1.01346 -0.0177789 0)
(1.01399 -0.0197711 0)
(1.01458 -0.0217827 0)
(1.0151 -0.0238513 0)
(1.01565 -0.0259341 0)
(1.0161 -0.0280721 0)
(1.01656 -0.0302156 0)
(1.01689 -0.0323992 0)
(1.01721 -0.0345834 0)
(1.01737 -0.0367909 0)
(1.0175 -0.0389888 0)
(1.01745 -0.0411843 0)
(1.01734 -0.0433534 0)
(1.01704 -0.0455007 0)
(1.01666 -0.047598 0)
(1.01609 -0.0496532 0)
(1.01543 -0.0516331 0)
(1.01457 -0.0535504 0)
(1.01362 -0.0553672 0)
(1.01248 -0.0571022 0)
(1.01125 -0.0587131 0)
(1.00985 -0.0602262 0)
(1.00836 -0.0615948 0)
(1.00674 -0.0628538 0)
(1.00503 -0.0639529 0)
(1.00322 -0.0649357 0)
(1.00134 -0.0657489 0)
(0.999387 -0.0664454 0)
(0.997395 -0.0669685 0)
(0.995352 -0.0673805 0)
(0.993297 -0.0676214 0)
(0.991219 -0.0677615 0)
(0.989151 -0.0677373 0)
(0.987085 -0.0676286 0)
(0.985047 -0.0673666 0)
(0.983032 -0.0670394 0)
(0.981062 -0.0665743 0)
(0.979131 -0.0660644 0)
(0.977256 -0.0654335 0)
(0.975433 -0.0647759 0)
(0.973671 -0.0640125 0)
(0.971967 -0.063237 0)
(0.970324 -0.0623695 0)
(0.968743 -0.0615041 0)
(0.967224 -0.0605624 0)
(0.965774 -0.0596363 0)
(0.964392 -0.0586527 0)
(0.963087 -0.0576932 0)
(0.961868 -0.0567031 0)
(0.960737 -0.0557252 0)
(0.959652 -0.0547459 0)
(0.958654 -0.0537791 0)
(0.957707 -0.0528196 0)
(0.956814 -0.0518778 0)
(0.955971 -0.0509511 0)
(0.955174 -0.0500466 0)
(0.954424 -0.049163 0)
(0.953716 -0.0483044 0)
(0.953052 -0.0474704 0)
(0.95242 -0.0466638 0)
(1.01089 -0.000885372 0)
(1.01102 -0.00297945 0)
(1.01122 -0.00478231 0)
(1.01154 -0.00671634 0)
(1.01191 -0.00859322 0)
(1.01238 -0.0104772 0)
(1.01287 -0.0124088 0)
(1.01345 -0.0143325 0)
(1.01403 -0.0163312 0)
(1.01467 -0.0183244 0)
(1.01529 -0.0204087 0)
(1.01594 -0.0224836 0)
(1.01655 -0.0246595 0)
(1.01717 -0.0268172 0)
(1.01771 -0.0290795 0)
(1.01824 -0.0313094 0)
(1.01867 -0.0336505 0)
(1.01905 -0.035933 0)
(1.01931 -0.0383243 0)
(1.01949 -0.0406294 0)
(1.01953 -0.0430402 0)
(1.01947 -0.045339 0)
(1.01924 -0.0477249 0)
(1.01889 -0.0499763 0)
(1.01837 -0.0522905 0)
(1.01771 -0.0544483 0)
(1.01687 -0.056641 0)
(1.01588 -0.0586565 0)
(1.01473 -0.0606773 0)
(1.01343 -0.0625028 0)
(1.01197 -0.0643044 0)
(1.01038 -0.0658964 0)
(1.00864 -0.0674381 0)
(1.00679 -0.0687609 0)
(1.00482 -0.0700118 0)
(1.00276 -0.0710405 0)
(1.00062 -0.0719816 0)
(0.998404 -0.0727032 0)
(0.996136 -0.0733283 0)
(0.993829 -0.0737429 0)
(0.991496 -0.0740597 0)
(0.989151 -0.0741811 0)
(0.98681 -0.0742077 0)
(0.984483 -0.0740584 0)
(0.982183 -0.0738223 0)
(0.97992 -0.0734309 0)
(0.977704 -0.0729642 0)
(0.97554 -0.0723645 0)
(0.973439 -0.0717042 0)
(0.971403 -0.0709365 0)
(0.969441 -0.0701263 0)
(0.967553 -0.0692357 0)
(0.965747 -0.0683198 0)
(0.964017 -0.0673467 0)
(0.962364 -0.0663607 0)
(0.960783 -0.0653358 0)
(0.959263 -0.0643064 0)
(0.957778 -0.0632543 0)
(0.956479 -0.0622063 0)
(0.955189 -0.0611555 0)
(0.953969 -0.0601145 0)
(0.952815 -0.0590804 0)
(0.951729 -0.058061 0)
(0.950705 -0.0570567 0)
(0.949745 -0.0560722 0)
(0.948842 -0.055109 0)
(0.947995 -0.0541697 0)
(0.947199 -0.053256 0)
(0.946455 -0.0523702 0)
(1.01172 -0.000908779 0)
(1.01186 -0.00305226 0)
(1.01208 -0.00489521 0)
(1.01243 -0.00688427 0)
(1.01282 -0.00879823 0)
(1.01334 -0.0107427 0)
(1.01388 -0.0127131 0)
(1.01452 -0.014706 0)
(1.01515 -0.016746 0)
(1.01587 -0.0188201 0)
(1.01655 -0.0209514 0)
(1.01729 -0.0231214 0)
(1.01797 -0.0253533 0)
(1.01868 -0.0276236 0)
(1.0193 -0.0299553 0)
(1.01993 -0.0323223 0)
(1.02044 -0.0347354 0)
(1.02092 -0.037185 0)
(1.02126 -0.0396638 0)
(1.02154 -0.0421745 0)
(1.02165 -0.0446872 0)
(1.02167 -0.047219 0)
(1.0215 -0.0497318 0)
(1.02122 -0.0522423 0)
(1.02074 -0.0547104 0)
(1.02012 -0.0571509 0)
(1.0193 -0.0595238 0)
(1.01833 -0.0618416 0)
(1.01715 -0.064066 0)
(1.01583 -0.0662073 0)
(1.01431 -0.0682305 0)
(1.01265 -0.0701438 0)
(1.01081 -0.0719174 0)
(1.00884 -0.0735578 0)
(1.00673 -0.0750415 0)
(1.00451 -0.0763739 0)
(1.00217 -0.0775387 0)
(0.999746 -0.0785407 0)
(0.997243 -0.0793718 0)
(0.99469 -0.0800359 0)
(0.992091 -0.0805319 0)
(0.989471 -0.0808631 0)
(0.986838 -0.0810378 0)
(0.984213 -0.0810563 0)
(0.981603 -0.0809347 0)
(0.979028 -0.0806732 0)
(0.976492 -0.0802916 0)
(0.97401 -0.0797915 0)
(0.971587 -0.0791919 0)
(0.969231 -0.0784945 0)
(0.966947 -0.0777155 0)
(0.964734 -0.0768565 0)
(0.962601 -0.0759324 0)
(0.960543 -0.0749465 0)
(0.958571 -0.0739145 0)
(0.956686 -0.0728416 0)
(0.95489 -0.0717403 0)
(0.953216 -0.0706252 0)
(0.951661 -0.0694915 0)
(0.950183 -0.0683573 0)
(0.948793 -0.0672181 0)
(0.947477 -0.0660887 0)
(0.946234 -0.0649663 0)
(0.94506 -0.0638618 0)
(0.943951 -0.0627739 0)
(0.942907 -0.06171 0)
(0.941923 -0.0606697 0)
(0.941001 -0.0596583 0)
(0.940131 -0.0586755 0)
(1.01253 -0.000930486 0)
(1.01267 -0.00311193 0)
(1.01292 -0.00499858 0)
(1.01328 -0.00702266 0)
(1.01372 -0.00898557 0)
(1.01428 -0.0109619 0)
(1.01487 -0.0129911 0)
(1.01556 -0.0150159 0)
(1.01626 -0.0171247 0)
(1.01703 -0.0192339 0)
(1.01779 -0.0214467 0)
(1.0186 -0.0236584 0)
(1.01938 -0.0259871 0)
(1.02016 -0.0283088 0)
(1.02089 -0.0307548 0)
(1.0216 -0.0331823 0)
(1.02221 -0.0357454 0)
(1.02278 -0.0382661 0)
(1.02322 -0.0409242 0)
(1.02359 -0.0435137 0)
(1.0238 -0.0462418 0)
(1.0239 -0.0488771 0)
(1.02383 -0.0516341 0)
(1.02361 -0.0542768 0)
(1.0232 -0.0570173 0)
(1.02263 -0.0596206 0)
(1.02186 -0.0622919 0)
(1.02091 -0.0648028 0)
(1.01975 -0.0673476 0)
(1.01841 -0.069709 0)
(1.01687 -0.0720685 0)
(1.01515 -0.0742232 0)
(1.01325 -0.0763406 0)
(1.01117 -0.0782354 0)
(1.00894 -0.0800605 0)
(1.00656 -0.0816504 0)
(1.00406 -0.0831434 0)
(1.00143 -0.0843949 0)
(0.998713 -0.0855294 0)
(0.995913 -0.0864232 0)
(0.993051 -0.0871888 0)
(0.990146 -0.0877236 0)
(0.987216 -0.0881249 0)
(0.984277 -0.0883126 0)
(0.981348 -0.0883698 0)
(0.978441 -0.0882337 0)
(0.975574 -0.0879768 0)
(0.972756 -0.0875492 0)
(0.970002 -0.087015 0)
(0.967316 -0.0863374 0)
(0.964714 -0.0855737 0)
(0.962195 -0.0846995 0)
(0.959777 -0.0837625 0)
(0.95745 -0.0827464 0)
(0.955223 -0.0816874 0)
(0.95309 -0.0805722 0)
(0.951055 -0.0794365 0)
(0.949075 -0.0782498 0)
(0.947283 -0.0770642 0)
(0.945529 -0.0758531 0)
(0.943863 -0.0746497 0)
(0.942287 -0.0734371 0)
(0.940801 -0.0722398 0)
(0.9394 -0.0710469 0)
(0.938086 -0.0698766 0)
(0.936849 -0.0687208 0)
(0.935692 -0.0675935 0)
(0.934605 -0.0664884 0)
(0.933588 -0.0654162 0)
(1.01331 -0.000948313 0)
(1.01347 -0.00316668 0)
(1.01372 -0.00508144 0)