/*--------------------------------*- C++ -*----------------------------------*\
  =========                 |
  \\      /  F ield         | OpenFOAM: The Open Source CFD Toolbox
   \\    /   O peration     | Website:  https://openfoam.org
    \\  /    A nd           | Version:  10
     \\/     M anipulation  |
\*---------------------------------------------------------------------------*/
FoamFile
{
    format      ascii;
    class       volVectorField;
    location    "0";
    object      U_d;
}
// * * * * * * * * * * * * * * * * * * * * * * * * * * * * * * * * * * * * * //

dimensions      [0 1 -1 0 0 0 0];

internalField   nonuniform List<vector> 
66268
(
(-1.9217e-09 1.71582e-09 0)
(1.26236e-09 3.40257e-09 0)
(2.32755e-09 1.25128e-08 0)
(-5.88707e-10 6.1589e-09 0)
(-2.66698e-09 2.04773e-08 0)
(-2.97296e-09 1.63354e-08 0)
(-7.13657e-10 2.86301e-08 0)
(-8.2599e-09 2.57976e-08 0)
(-5.93521e-09 3.01289e-08 0)
(-4.82685e-09 3.98673e-08 0)
(-6.50222e-09 3.54152e-08 0)
(-6.72692e-09 4.86447e-08 0)
(-5.64795e-09 4.25301e-08 0)
(-2.92458e-09 5.20663e-08 0)
(-8.49879e-10 5.26177e-08 0)
(-6.41049e-10 5.54928e-08 0)
(-3.22153e-09 6.01438e-08 0)
(-4.20674e-09 5.90467e-08 0)
(-2.13329e-09 6.6647e-08 0)
(-4.0671e-09 6.22162e-08 0)
(-2.01626e-09 6.74913e-08 0)
(-2.09672e-09 6.35609e-08 0)
(1.26743e-09 6.93628e-08 0)
(-1.51414e-09 6.48143e-08 0)
(8.38345e-10 6.97514e-08 0)
(-3.4439e-10 6.64339e-08 0)
(2.00549e-09 7.11988e-08 0)
(1.44128e-10 6.88034e-08 0)
(3.46074e-09 7.29752e-08 0)
(2.42645e-09 6.98855e-08 0)
(5.89986e-09 7.37943e-08 0)
(4.12668e-09 7.05925e-08 0)
(5.92962e-09 7.38571e-08 0)
(3.66563e-09 7.06418e-08 0)
(5.71873e-09 7.32916e-08 0)
(4.00511e-09 7.00225e-08 0)
(5.71795e-09 7.29586e-08 0)
(4.95066e-09 7.04138e-08 0)
(6.20519e-09 7.24482e-08 0)
(5.71675e-09 6.98118e-08 0)
(6.5084e-09 7.20768e-08 0)
(5.80308e-09 6.95762e-08 0)
(6.33451e-09 7.17104e-08 0)
(5.77943e-09 6.94614e-08 0)
(6.43987e-09 7.0746e-08 0)
(6.63993e-09 6.91772e-08 0)
(8.25589e-09 6.94794e-08 0)
(1.04283e-08 6.83118e-08 0)
(1.398e-08 6.83957e-08 0)
(1.82015e-08 6.752e-08 0)
(2.2951e-08 6.76451e-08 0)
(2.69825e-08 6.68539e-08 0)
(3.05143e-08 6.71427e-08 0)
(3.18315e-08 6.61645e-08 0)
(3.23732e-08 6.6418e-08 0)
(3.05097e-08 6.55325e-08 0)
(2.8337e-08 6.55418e-08 0)
(2.47282e-08 6.48145e-08 0)
(2.12965e-08 6.46414e-08 0)
(1.74961e-08 6.39043e-08 0)
(1.4121e-08 6.36421e-08 0)
(1.10406e-08 6.29465e-08 0)
(8.48516e-09 6.2672e-08 0)
(6.49447e-09 6.20747e-08 0)
(4.92867e-09 6.18671e-08 0)
(3.87216e-09 6.13963e-08 0)
(3.11735e-09 6.12187e-08 0)
(2.72083e-09 6.08489e-08 0)
(2.50527e-09 6.07374e-08 0)
(-1.62996e-09 6.06456e-09 0)
(-9.5536e-09 1.4751e-08 0)
(-5.21563e-09 2.11712e-08 0)
(-8.9161e-09 3.70815e-08 0)
(-6.39317e-09 3.69221e-08 0)
(-5.5287e-09 5.12101e-08 0)
(-9.51271e-09 5.4547e-08 0)
(-2.23599e-09 6.28217e-08 0)
(-6.51839e-09 7.07528e-08 0)
(-5.30242e-09 7.34097e-08 0)
(-3.93849e-09 8.46868e-08 0)
(-5.3965e-09 8.27989e-08 0)
(1.44653e-09 9.7018e-08 0)
(-9.44868e-09 9.59037e-08 0)
(-3.73128e-09 9.98896e-08 0)
(-1.17374e-08 1.07178e-07 0)
(-4.01465e-09 1.04452e-07 0)
(-5.03579e-09 1.15646e-07 0)
(-5.23566e-09 1.11578e-07 0)
(-8.32231e-10 1.21844e-07 0)
(-1.64784e-09 1.20252e-07 0)
(-1.49566e-09 1.28501e-07 0)
(-4.65607e-09 1.26173e-07 0)
(-2.13093e-09 1.33721e-07 0)
(-4.57211e-09 1.28634e-07 0)
(-3.47317e-09 1.34588e-07 0)
(-5.59866e-09 1.30998e-07 0)
(-2.92191e-09 1.33201e-07 0)
(-6.68488e-09 1.31014e-07 0)
(-4.0908e-09 1.31985e-07 0)
(-6.91022e-09 1.32044e-07 0)
(-3.57322e-09 1.3288e-07 0)
(-5.02768e-09 1.29889e-07 0)
(-1.43973e-09 1.33092e-07 0)
(-4.2465e-09 1.30028e-07 0)
(-1.55301e-09 1.32042e-07 0)
(-4.29122e-09 1.28047e-07 0)
(-2.7715e-09 1.30323e-07 0)
(-4.26098e-09 1.26271e-07 0)
(-3.1963e-09 1.28502e-07 0)
(-3.3777e-09 1.24775e-07 0)
(-2.31389e-09 1.27467e-07 0)
(-2.58775e-09 1.23474e-07 0)
(-1.78181e-09 1.25279e-07 0)
(-2.42349e-09 1.2205e-07 0)
(-1.90049e-09 1.22917e-07 0)
(-3.83834e-09 1.21287e-07 0)
(-4.89957e-09 1.22204e-07 0)
(-9.13707e-09 1.21065e-07 0)
(-1.2815e-08 1.21386e-07 0)
(-1.80543e-08 1.20424e-07 0)
(-2.23649e-08 1.20529e-07 0)
(-2.5357e-08 1.19802e-07 0)
(-2.70451e-08 1.20014e-07 0)
(-2.61556e-08 1.19176e-07 0)
(-2.4269e-08 1.19577e-07 0)
(-2.0689e-08 1.19187e-07 0)
(-1.68076e-08 1.19456e-07 0)
(-1.27096e-08 1.18928e-07 0)
(-8.67161e-09 1.19253e-07 0)
(-5.30633e-09 1.19103e-07 0)
(-2.0823e-09 1.19543e-07 0)
(-1.11545e-10 1.19515e-07 0)
(1.75212e-09 1.19872e-07 0)
(2.53202e-09 1.19838e-07 0)
(3.32198e-09 1.19987e-07 0)
(3.32828e-09 1.19879e-07 0)
(3.41413e-09 1.20001e-07 0)
(2.97287e-09 1.19858e-07 0)
(-2.15986e-08 4.61543e-09 0)
(-1.56893e-08 1.82772e-08 0)
(-1.94681e-08 3.38039e-08 0)
(-1.42136e-08 3.68974e-08 0)
(-1.9359e-08 6.08796e-08 0)
(-1.70765e-08 6.26875e-08 0)
(-1.89649e-08 8.52137e-08 0)
(-2.36783e-08 8.5443e-08 0)
(-2.18028e-08 9.95666e-08 0)
(-2.1797e-08 1.16217e-07 0)
(-2.02098e-08 1.18264e-07 0)
(-2.3133e-08 1.3945e-07 0)
(-1.91971e-08 1.37209e-07 0)
(-1.98144e-08 1.53146e-07 0)
(-1.34946e-08 1.57585e-07 0)
(-1.53477e-08 1.65896e-07 0)
(-1.55799e-08 1.76859e-07 0)
(-1.47721e-08 1.7872e-07 0)
(-1.26453e-08 1.90741e-07 0)
(-1.32433e-08 1.91414e-07 0)
(-1.33822e-08 1.98954e-07 0)
(-1.12562e-08 1.96852e-07 0)
(-6.47679e-09 2.05271e-07 0)
(-6.74409e-09 2.0365e-07 0)
(-5.01249e-09 2.12046e-07 0)
(-1.98698e-09 2.0806e-07 0)
(-3.03205e-09 2.17051e-07 0)
(-1.06574e-09 2.12967e-07 0)
(4.25211e-10 2.21839e-07 0)
(6.45675e-10 2.1665e-07 0)
(5.0282e-09 2.24478e-07 0)
(1.92264e-09 2.17319e-07 0)
(7.58512e-09 2.24716e-07 0)
(4.08713e-09 2.17143e-07 0)
(8.80286e-09 2.2162e-07 0)
(6.02559e-09 2.17558e-07 0)
(1.02136e-08 2.1883e-07 0)
(7.65118e-09 2.19265e-07 0)
(1.14235e-08 2.17879e-07 0)
(8.91396e-09 2.15862e-07 0)
(1.22072e-08 2.1681e-07 0)
(9.9665e-09 2.1262e-07 0)
(1.23266e-08 2.15539e-07 0)
(1.08089e-08 2.11352e-07 0)
(1.23775e-08 2.13725e-07 0)
(1.20624e-08 2.10715e-07 0)
(1.37725e-08 2.10806e-07 0)
(1.53332e-08 2.0885e-07 0)
(1.86205e-08 2.07314e-07 0)
(2.22595e-08 2.06341e-07 0)
(2.70275e-08 2.05748e-07 0)
(3.02646e-08 2.04138e-07 0)
(3.38835e-08 2.0495e-07 0)
(3.3965e-08 2.02257e-07 0)
(3.42932e-08 2.02862e-07 0)
(3.11327e-08 2.01277e-07 0)
(2.84519e-08 2.01249e-07 0)
(2.39735e-08 2.00112e-07 0)
(2.0366e-08 1.99958e-07 0)
(1.6355e-08 1.98802e-07 0)
(1.3134e-08 1.98316e-07 0)
(1.01776e-08 1.97072e-07 0)
(8.04432e-09 1.96546e-07 0)
(6.36308e-09 1.9549e-07 0)
(5.27556e-09 1.95196e-07 0)
(4.4688e-09 1.94424e-07 0)
(4.10142e-09 1.94278e-07 0)
(3.85261e-09 1.93707e-07 0)
(3.87825e-09 1.93591e-07 0)
(-2.35461e-08 1.57525e-08 0)
(-2.79708e-08 2.98045e-08 0)
(-3.00351e-08 4.76575e-08 0)
(-2.85062e-08 7.65047e-08 0)
(-3.65125e-08 8.50507e-08 0)
(-2.39929e-08 1.02126e-07 0)
(-3.74618e-08 1.25733e-07 0)
(-2.54113e-08 1.37038e-07 0)
(-3.3348e-08 1.57535e-07 0)
(-2.56477e-08 1.68333e-07 0)
(-3.28531e-08 1.86275e-07 0)
(-2.50722e-08 1.98846e-07 0)
(-2.29704e-08 2.14775e-07 0)
(-2.67933e-08 2.32289e-07 0)
(-2.61335e-08 2.35467e-07 0)
(-2.84239e-08 2.56826e-07 0)
(-2.92104e-08 2.56713e-07 0)
(-2.45252e-08 2.78784e-07 0)
(-2.72645e-08 2.78637e-07 0)
(-1.81891e-08 2.95455e-07 0)
(-1.81654e-08 2.99715e-07 0)
(-1.5523e-08 3.18472e-07 0)
(-1.77092e-08 3.20207e-07 0)
(-1.23412e-08 3.29793e-07 0)
(-1.49661e-08 3.34208e-07 0)
(-1.21175e-08 3.39931e-07 0)
(-1.25045e-08 3.40756e-07 0)
(-9.40676e-09 3.49379e-07 0)
(-1.18108e-08 3.45382e-07 0)
(-8.67466e-09 3.52869e-07 0)
(-8.89498e-09 3.50672e-07 0)
(-5.42041e-09 3.5605e-07 0)
(-4.3922e-09 3.56492e-07 0)
(-1.8633e-09 3.60429e-07 0)
(-1.87796e-09 3.59551e-07 0)
(5.65286e-10 3.62311e-07 0)
(-4.3012e-10 3.57803e-07 0)
(2.28019e-09 3.63325e-07 0)
(1.79778e-10 3.5755e-07 0)
(3.64114e-09 3.63139e-07 0)
(2.62228e-09 3.59445e-07 0)
(5.73794e-09 3.6327e-07 0)
(5.09291e-09 3.6033e-07 0)
(6.89548e-09 3.60423e-07 0)
(6.43079e-09 3.58371e-07 0)
(7.2316e-09 3.58408e-07 0)
(5.68263e-09 3.57355e-07 0)
(5.25755e-09 3.58859e-07 0)
(9.91062e-10 3.58202e-07 0)
(-1.71291e-09 3.59484e-07 0)
(-7.45414e-09 3.57881e-07 0)
(-1.1009e-08 3.58145e-07 0)
(-1.43189e-08 3.57089e-07 0)
(-1.54913e-08 3.57726e-07 0)
(-1.43479e-08 3.5707e-07 0)
(-1.18527e-08 3.57114e-07 0)
(-8.0019e-09 3.56137e-07 0)
(-3.51421e-09 3.5635e-07 0)
(3.1696e-10 3.55404e-07 0)
(4.39869e-09 3.55801e-07 0)
(7.14288e-09 3.55464e-07 0)
(1.02695e-08 3.56088e-07 0)
(1.13962e-08 3.55765e-07 0)
(1.29192e-08 3.56249e-07 0)
(1.28621e-08 3.55959e-07 0)
(1.32596e-08 3.56187e-07 0)
(1.25207e-08 3.55802e-07 0)
(1.22452e-08 3.55878e-07 0)
(1.11738e-08 3.55516e-07 0)
(-5.22629e-08 1.13639e-08 0)
(-4.45126e-08 4.19621e-08 0)
(-5.28982e-08 7.51204e-08 0)
(-4.33557e-08 8.89391e-08 0)
(-5.7074e-08 1.37594e-07 0)
(-4.82865e-08 1.46037e-07 0)
(-5.4132e-08 1.89927e-07 0)
(-6.14643e-08 1.98328e-07 0)
(-5.5026e-08 2.29395e-07 0)
(-6.44006e-08 2.56658e-07 0)
(-4.78558e-08 2.7449e-07 0)
(-6.21263e-08 3.12442e-07 0)
(-4.83602e-08 3.17395e-07 0)
(-5.59129e-08 3.48685e-07 0)
(-4.67075e-08 3.63719e-07 0)
(-5.08997e-08 3.82541e-07 0)
(-4.87586e-08 4.03149e-07 0)
(-4.72497e-08 4.23408e-07 0)
(-4.42071e-08 4.40996e-07 0)
(-4.32728e-08 4.57643e-07 0)
(-3.86096e-08 4.71676e-07 0)
(-3.79688e-08 4.7851e-07 0)
(-2.99407e-08 4.98189e-07 0)
(-3.04155e-08 5.02394e-07 0)
(-2.4376e-08 5.19703e-07 0)
(-2.42928e-08 5.2278e-07 0)
(-1.88732e-08 5.39313e-07 0)
(-1.94938e-08 5.40115e-07 0)
(-1.40507e-08 5.57099e-07 0)
(-1.34316e-08 5.58034e-07 0)
(-7.05123e-09 5.71228e-07 0)
(-8.11291e-09 5.67921e-07 0)
(3.57972e-10 5.79363e-07 0)
(-2.55964e-09 5.75097e-07 0)
(5.03483e-09 5.85411e-07 0)
(1.15584e-09 5.82288e-07 0)
(8.92089e-09 5.90596e-07 0)
(5.90734e-09 5.89273e-07 0)
(1.10306e-08 5.93575e-07 0)
(9.62979e-09 5.94044e-07 0)
(1.27432e-08 5.95022e-07 0)
(1.09855e-08 5.9474e-07 0)
(1.27507e-08 5.96443e-07 0)
(1.19347e-08 5.96409e-07 0)
(1.35453e-08 5.97683e-07 0)
(1.3576e-08 5.96394e-07 0)
(1.55422e-08 5.98224e-07 0)
(1.64911e-08 5.95161e-07 0)
(1.96864e-08 5.96167e-07 0)
(2.28325e-08 5.94395e-07 0)
(2.77008e-08 5.95034e-07 0)
(3.08486e-08 5.94287e-07 0)
(3.50408e-08 5.94583e-07 0)
(3.47502e-08 5.93562e-07 0)
(3.52826e-08 5.93719e-07 0)
(3.14249e-08 5.92721e-07 0)
(2.87971e-08 5.92971e-07 0)
(2.3854e-08 5.91808e-07 0)
(2.04301e-08 5.92103e-07 0)
(1.63942e-08 5.90862e-07 0)
(1.3585e-08 5.90609e-07 0)
(1.07655e-08 5.89515e-07 0)
(9.29896e-09 5.89195e-07 0)
(7.84874e-09 5.88109e-07 0)
(7.33046e-09 5.87605e-07 0)
(6.57585e-09 5.86851e-07 0)
(6.60583e-09 5.86675e-07 0)
(6.28302e-09 5.86083e-07 0)
(6.49978e-09 5.86046e-07 0)
(-7.39434e-08 3.05278e-08 0)
(-7.32997e-08 5.97446e-08 0)
(-7.80452e-08 9.78609e-08 0)
(-7.15058e-08 1.45154e-07 0)
(-8.17245e-08 1.75315e-07 0)
(-7.24907e-08 2.06488e-07 0)
(-7.82404e-08 2.53714e-07 0)
(-8.21685e-08 2.81962e-07 0)
(-7.5503e-08 3.15297e-07 0)
(-7.65687e-08 3.51152e-07 0)
(-7.986e-08 3.83552e-07 0)
(-7.56456e-08 4.12698e-07 0)
(-7.5725e-08 4.43636e-07 0)
(-7.19036e-08 4.79685e-07 0)
(-7.68685e-08 4.96912e-07 0)
(-7.38584e-08 5.37247e-07 0)
(-7.77257e-08 5.51219e-07 0)
(-6.6177e-08 5.87832e-07 0)
(-7.71233e-08 6.01463e-07 0)
(-6.00022e-08 6.36265e-07 0)
(-6.82505e-08 6.50026e-07 0)
(-5.50866e-08 6.81877e-07 0)
(-6.20761e-08 6.95919e-07 0)
(-4.99044e-08 7.17254e-07 0)
(-5.49696e-08 7.32259e-07 0)
(-4.60136e-08 7.50349e-07 0)
(-4.65389e-08 7.62369e-07 0)
(-3.8525e-08 7.79198e-07 0)
(-3.96698e-08 7.84717e-07 0)
(-3.40254e-08 8.00481e-07 0)
(-3.38933e-08 8.02757e-07 0)
(-2.77321e-08 8.19499e-07 0)
(-2.65103e-08 8.23627e-07 0)
(-2.03611e-08 8.35642e-07 0)
(-2.05105e-08 8.36207e-07 0)
(-1.37467e-08 8.46505e-07 0)
(-1.46048e-08 8.48147e-07 0)
(-9.1949e-09 8.52863e-07 0)
(-9.76632e-09 8.56669e-07 0)
(-4.93844e-09 8.62474e-07 0)
(-5.36017e-09 8.61476e-07 0)
(1.41648e-10 8.66882e-07 0)
(-1.79086e-11 8.6843e-07 0)
(3.85509e-09 8.71086e-07 0)
(3.26614e-09 8.71729e-07 0)
(6.48659e-09 8.75087e-07 0)
(5.15311e-09 8.73088e-07 0)
(6.37369e-09 8.76203e-07 0)
(3.25475e-09 8.77294e-07 0)
(1.62269e-09 8.7906e-07 0)
(-3.32176e-09 8.78693e-07 0)
(-6.51802e-09 8.80323e-07 0)
(-9.76563e-09 8.79317e-07 0)
(-1.04057e-08 8.80279e-07 0)
(-9.2133e-09 8.80068e-07 0)
(-5.85371e-09 8.80986e-07 0)
(-1.79856e-09 8.80925e-07 0)
(3.56808e-09 8.81482e-07 0)
(7.2802e-09 8.81047e-07 0)
(1.14193e-08 8.81781e-07 0)
(1.37028e-08 8.8167e-07 0)
(1.67893e-08 8.82316e-07 0)
(1.73063e-08 8.82338e-07 0)
(1.86131e-08 8.82723e-07 0)
(1.8042e-08 8.82566e-07 0)
(1.83027e-08 8.82983e-07 0)
(1.71366e-08 8.82873e-07 0)
(1.67617e-08 8.83169e-07 0)
(1.53254e-08 8.83145e-07 0)
(-1.07802e-07 2.04951e-08 0)
(-1.05173e-07 7.36696e-08 0)
(-1.10027e-07 1.30458e-07 0)
(-1.03191e-07 1.59827e-07 0)
(-1.17136e-07 2.28875e-07 0)
(-1.07402e-07 2.58246e-07 0)
(-1.22676e-07 3.17974e-07 0)
(-1.25761e-07 3.48206e-07 0)
(-1.25453e-07 4.00056e-07 0)
(-1.22132e-07 4.37459e-07 0)
(-1.13746e-07 4.7911e-07 0)
(-1.23935e-07 5.31973e-07 0)
(-1.13815e-07 5.59824e-07 0)
(-1.23883e-07 6.06941e-07 0)
(-1.15265e-07 6.38349e-07 0)
(-1.1874e-07 6.76379e-07 0)
(-1.18742e-07 7.15386e-07 0)
(-1.17243e-07 7.51046e-07 0)
(-1.11116e-07 7.82514e-07 0)
(-1.12521e-07 8.1796e-07 0)
(-1.04133e-07 8.47564e-07 0)
(-1.04156e-07 8.73554e-07 0)
(-9.45849e-08 9.05378e-07 0)
(-9.25041e-08 9.25635e-07 0)
(-8.16631e-08 9.5494e-07 0)
(-7.96837e-08 9.73991e-07 0)
(-7.14655e-08 1.00142e-06 0)
(-7.10236e-08 1.01626e-06 0)
(-6.33547e-08 1.04114e-06 0)
(-5.99232e-08 1.05246e-06 0)
(-5.10245e-08 1.07556e-06 0)
(-4.77338e-08 1.08283e-06 0)
(-3.78247e-08 1.10361e-06 0)
(-3.61718e-08 1.10602e-06 0)
(-2.75751e-08 1.12635e-06 0)
(-2.62368e-08 1.13016e-06 0)
(-1.81559e-08 1.14387e-06 0)
(-1.71959e-08 1.14966e-06 0)
(-1.00861e-08 1.16013e-06 0)
(-1.00151e-08 1.16295e-06 0)
(-4.75196e-09 1.17186e-06 0)
(-4.60503e-09 1.17634e-06 0)
(-5.42189e-10 1.17962e-06 0)
(-9.36427e-10 1.18281e-06 0)
(2.87513e-09 1.18794e-06 0)
(2.51229e-09 1.18996e-06 0)
(5.56727e-09 1.19236e-06 0)
(6.86709e-09 1.1941e-06 0)
(1.04234e-08 1.19706e-06 0)
(1.39076e-08 1.19702e-06 0)
(1.9476e-08 1.19955e-06 0)
(2.33436e-08 1.19849e-06 0)
(2.85722e-08 1.20155e-06 0)
(2.89339e-08 1.2008e-06 0)
(3.02454e-08 1.20226e-06 0)
(2.6458e-08 1.20181e-06 0)
(2.40196e-08 1.20282e-06 0)
(1.86e-08 1.20254e-06 0)
(1.51204e-08 1.20292e-06 0)
(1.10266e-08 1.20253e-06 0)
(8.54046e-09 1.20301e-06 0)
(6.10206e-09 1.20273e-06 0)
(5.32879e-09 1.20321e-06 0)
(4.27783e-09 1.20288e-06 0)
(4.42468e-09 1.20322e-06 0)
(3.96124e-09 1.20303e-06 0)
(4.49677e-09 1.20332e-06 0)
(4.32031e-09 1.20319e-06 0)
(4.82993e-09 1.20344e-06 0)
(-1.48547e-07 3.97037e-08 0)
(-1.3979e-07 8.6893e-08 0)
(-1.51782e-07 1.43369e-07 0)
(-1.41343e-07 2.0461e-07 0)
(-1.54493e-07 2.56373e-07 0)
(-1.40806e-07 2.95989e-07 0)
(-1.5163e-07 3.67019e-07 0)
(-1.52179e-07 4.15584e-07 0)
(-1.56532e-07 4.66605e-07 0)
(-1.5642e-07 5.24345e-07 0)
(-1.70252e-07 5.6721e-07 0)
(-1.57343e-07 6.18091e-07 0)
(-1.65099e-07 6.59171e-07 0)
(-1.58358e-07 7.1789e-07 0)
(-1.61337e-07 7.57666e-07 0)
(-1.60256e-07 8.14141e-07 0)
(-1.63621e-07 8.46765e-07 0)
(-1.57811e-07 9.06326e-07 0)
(-1.62946e-07 9.35238e-07 0)
(-1.48069e-07 9.89829e-07 0)
(-1.53617e-07 1.02176e-06 0)
(-1.39126e-07 1.06608e-06 0)
(-1.43074e-07 1.09933e-06 0)
(-1.32913e-07 1.14287e-06 0)
(-1.32314e-07 1.17209e-06 0)
(-1.25082e-07 1.205e-06 0)
(-1.1965e-07 1.23175e-06 0)
(-1.10497e-07 1.26141e-06 0)
(-1.07225e-07 1.28261e-06 0)
(-9.8184e-08 1.31361e-06 0)
(-9.42069e-08 1.32659e-06 0)
(-8.43865e-08 1.35658e-06 0)
(-8.18406e-08 1.36937e-06 0)
(-7.21614e-08 1.39266e-06 0)
(-6.88822e-08 1.4009e-06 0)
(-6.03704e-08 1.42055e-06 0)
(-5.84465e-08 1.42919e-06 0)
(-4.94628e-08 1.44337e-06 0)
(-4.77993e-08 1.45285e-06 0)
(-3.97947e-08 1.46394e-06 0)
(-3.7953e-08 1.47043e-06 0)
(-3.07053e-08 1.48132e-06 0)
(-2.89265e-08 1.48503e-06 0)
(-2.26532e-08 1.494e-06 0)
(-2.1029e-08 1.49778e-06 0)
(-1.61038e-08 1.50435e-06 0)
(-1.51614e-08 1.50836e-06 0)
(-1.12469e-08 1.51409e-06 0)
(-1.30327e-08 1.51793e-06 0)
(-1.20744e-08 1.52329e-06 0)
(-1.65775e-08 1.52497e-06 0)
(-1.82917e-08 1.53028e-06 0)
(-2.10873e-08 1.53141e-06 0)
(-2.10563e-08 1.53484e-06 0)
(-1.92078e-08 1.53649e-06 0)
(-1.50248e-08 1.53964e-06 0)
(-1.00547e-08 1.54038e-06 0)
(-3.60051e-09 1.54322e-06 0)
(7.7448e-10 1.54459e-06 0)
(5.72871e-09 1.54694e-06 0)
(7.86197e-09 1.54798e-06 0)
(1.12362e-08 1.55011e-06 0)
(1.16649e-08 1.55082e-06 0)
(1.3181e-08 1.55241e-06 0)
(1.24568e-08 1.55303e-06 0)
(1.28389e-08 1.55434e-06 0)
(1.16191e-08 1.5549e-06 0)
(1.14297e-08 1.55584e-06 0)
(1.004e-08 1.55637e-06 0)
(-1.82465e-07 2.89757e-08 0)
(-1.83361e-07 9.65267e-08 0)
(-1.84605e-07 1.71842e-07 0)
(-1.82591e-07 2.14176e-07 0)
(-1.96276e-07 2.99643e-07 0)
(-1.88171e-07 3.44976e-07 0)
(-2.01632e-07 4.1753e-07 0)
(-2.06955e-07 4.64585e-07 0)
(-2.12471e-07 5.29779e-07 0)
(-2.06035e-07 5.78379e-07 0)
(-2.09535e-07 6.48949e-07 0)
(-2.18266e-07 7.17611e-07 0)
(-2.15019e-07 7.62212e-07 0)
(-2.17932e-07 8.33019e-07 0)
(-2.1999e-07 8.81566e-07 0)
(-2.19328e-07 9.36619e-07 0)
(-2.22369e-07 9.94394e-07 0)
(-2.2067e-07 1.05184e-06 0)
(-2.19797e-07 1.10442e-06 0)
(-2.1855e-07 1.15496e-06 0)
(-2.11843e-07 1.20786e-06 0)
(-2.1063e-07 1.2564e-06 0)
(-1.95135e-07 1.30005e-06 0)
(-1.94519e-07 1.34403e-06 0)
(-1.81602e-07 1.38894e-06 0)
(-1.79846e-07 1.42782e-06 0)
(-1.6789e-07 1.47502e-06 0)
(-1.68146e-07 1.5048e-06 0)
(-1.55484e-07 1.54682e-06 0)
(-1.5141e-07 1.57161e-06 0)
(-1.39348e-07 1.61033e-06 0)
(-1.32895e-07 1.62868e-06 0)
(-1.19739e-07 1.66198e-06 0)
(-1.14846e-07 1.6791e-06 0)
(-1.02789e-07 1.70896e-06 0)
(-9.70323e-08 1.72185e-06 0)
(-8.46789e-08 1.74912e-06 0)
(-7.96789e-08 1.76434e-06 0)
(-6.87957e-08 1.78363e-06 0)
(-6.58841e-08 1.79368e-06 0)
(-5.6904e-08 1.81007e-06 0)
(-5.49363e-08 1.82144e-06 0)
(-4.79143e-08 1.83168e-06 0)
(-4.47721e-08 1.8419e-06 0)
(-3.92321e-08 1.85098e-06 0)
(-3.64956e-08 1.85846e-06 0)
(-3.14765e-08 1.86792e-06 0)
(-2.89441e-08 1.8719e-06 0)
(-2.36728e-08 1.87992e-06 0)
(-1.96272e-08 1.88222e-06 0)
(-1.21584e-08 1.88774e-06 0)
(-7.06601e-09 1.89071e-06 0)
(2.51388e-10 1.8962e-06 0)
(1.95219e-09 1.89751e-06 0)
(5.2488e-09 1.90136e-06 0)
(1.9038e-09 1.90296e-06 0)
(5.60451e-10 1.90693e-06 0)
(-4.74513e-09 1.90793e-06 0)
(-7.82364e-09 1.91109e-06 0)
(-1.19207e-08 1.91178e-06 0)
(-1.34317e-08 1.91354e-06 0)
(-1.50202e-08 1.91414e-06 0)
(-1.48247e-08 1.91605e-06 0)
(-1.50519e-08 1.91646e-06 0)
(-1.38135e-08 1.91814e-06 0)
(-1.35076e-08 1.9189e-06 0)
(-1.19724e-08 1.92016e-06 0)
(-1.16042e-08 1.92077e-06 0)
(-1.05661e-08 1.92217e-06 0)
(-2.32401e-07 4.61453e-08 0)
(-2.16333e-07 1.11537e-07 0)
(-2.4069e-07 1.84604e-07 0)
(-2.29996e-07 2.57361e-07 0)
(-2.41739e-07 3.29438e-07 0)
(-2.42509e-07 3.82055e-07 0)
(-2.42637e-07 4.71734e-07 0)
(-2.58289e-07 5.36666e-07 0)
(-2.60112e-07 6.08854e-07 0)
(-2.56461e-07 6.83113e-07 0)
(-2.73453e-07 7.39412e-07 0)
(-2.66727e-07 8.12635e-07 0)
(-2.76481e-07 8.74397e-07 0)
(-2.71715e-07 9.4923e-07 0)
(-2.81705e-07 1.0148e-06 0)
(-2.80934e-07 1.09216e-06 0)
(-2.89028e-07 1.14531e-06 0)
(-2.82305e-07 1.22489e-06 0)
(-2.89241e-07 1.2763e-06 0)
(-2.75389e-07 1.35476e-06 0)
(-2.78106e-07 1.40667e-06 0)
(-2.66975e-07 1.47615e-06 0)
(-2.70523e-07 1.52824e-06 0)
(-2.57034e-07 1.59173e-06 0)
(-2.58432e-07 1.6411e-06 0)
(-2.47794e-07 1.69506e-06 0)
(-2.4164e-07 1.73916e-06 0)
(-2.2872e-07 1.78762e-06 0)
(-2.22596e-07 1.83035e-06 0)
(-2.0979e-07 1.87746e-06 0)
(-2.02927e-07 1.90938e-06 0)
(-1.91006e-07 1.95488e-06 0)
(-1.84005e-07 1.98088e-06 0)
(-1.70167e-07 2.01842e-06 0)
(-1.62604e-07 2.04104e-06 0)
(-1.49078e-07 2.07434e-06 0)
(-1.40731e-07 2.09401e-06 0)
(-1.29729e-07 2.11891e-06 0)
(-1.2386e-07 2.13646e-06 0)
(-1.12494e-07 2.15627e-06 0)
(-1.0673e-07 2.17105e-06 0)
(-9.60502e-08 2.18713e-06 0)
(-9.11076e-08 2.20295e-06 0)
(-8.16536e-08 2.21623e-06 0)
(-7.74788e-08 2.22646e-06 0)
(-6.90247e-08 2.24057e-06 0)
(-6.63339e-08 2.24834e-06 0)
(-5.89969e-08 2.25976e-06 0)
(-5.84647e-08 2.2658e-06 0)
(-5.46902e-08 2.27668e-06 0)
(-5.69611e-08 2.2824e-06 0)
(-5.61795e-08 2.29126e-06 0)
(-5.81765e-08 2.29651e-06 0)
(-5.63119e-08 2.30483e-06 0)
(-5.31532e-08 2.30833e-06 0)
(-4.66576e-08 2.31339e-06 0)
(-4.01392e-08 2.3166e-06 0)
(-3.17813e-08 2.32188e-06 0)
(-2.59816e-08 2.3245e-06 0)
(-1.94738e-08 2.32808e-06 0)
(-1.6757e-08 2.33055e-06 0)
(-1.22637e-08 2.33382e-06 0)
(-1.1424e-08 2.3358e-06 0)
(-9.15309e-09 2.339e-06 0)
(-9.61852e-09 2.34039e-06 0)
(-8.62087e-09 2.3429e-06 0)
(-9.71494e-09 2.34422e-06 0)
(-9.4092e-09 2.34624e-06 0)
(-1.06628e-08 2.34736e-06 0)
(-2.70693e-07 4.3178e-08 0)
(-2.73186e-07 1.24049e-07 0)
(-2.80857e-07 2.21482e-07 0)
(-2.72928e-07 2.91698e-07 0)
(-2.90647e-07 3.85809e-07 0)
(-2.8607e-07 4.6349e-07 0)
(-2.93118e-07 5.48723e-07 0)
(-3.1047e-07 6.14795e-07 0)
(-3.1372e-07 7.09074e-07 0)
(-3.1974e-07 7.69795e-07 0)
(-3.29205e-07 8.66995e-07 0)
(-3.32942e-07 9.55206e-07 0)
(-3.44002e-07 1.02642e-06 0)
(-3.45437e-07 1.11631e-06 0)
(-3.50001e-07 1.19121e-06 0)
(-3.51566e-07 1.26607e-06 0)
(-3.57737e-07 1.35035e-06 0)
(-3.59181e-07 1.43331e-06 0)
(-3.59204e-07 1.50861e-06 0)
(-3.6478e-07 1.58363e-06 0)
(-3.6119e-07 1.65826e-06 0)
(-3.6316e-07 1.73077e-06 0)
(-3.51297e-07 1.80026e-06 0)
(-3.4778e-07 1.86726e-06 0)
(-3.32842e-07 1.92987e-06 0)
(-3.30884e-07 1.99698e-06 0)
(-3.16411e-07 2.06622e-06 0)
(-3.1215e-07 2.11839e-06 0)
(-2.97332e-07 2.17973e-06 0)
(-2.91909e-07 2.22286e-06 0)
(-2.7676e-07 2.27691e-06 0)
(-2.66677e-07 2.31446e-06 0)
(-2.49114e-07 2.36568e-06 0)
(-2.40584e-07 2.3999e-06 0)
(-2.22678e-07 2.44341e-06 0)
(-2.12923e-07 2.47454e-06 0)
(-1.96854e-07 2.51073e-06 0)
(-1.86791e-07 2.53502e-06 0)
(-1.71292e-07 2.56857e-06 0)
(-1.62984e-07 2.58938e-06 0)
(-1.4987e-07 2.61535e-06 0)
(-1.42123e-07 2.63554e-06 0)
(-1.29812e-07 2.65405e-06 0)
(-1.23722e-07 2.67205e-06 0)
(-1.12824e-07 2.68887e-06 0)
(-1.07907e-07 2.70077e-06 0)
(-9.88775e-08 2.71712e-06 0)
(-9.47706e-08 2.72645e-06 0)
(-8.65902e-08 2.73674e-06 0)
(-8.01209e-08 2.74475e-06 0)
(-7.00887e-08 2.75463e-06 0)
(-6.2002e-08 2.75964e-06 0)
(-5.06553e-08 2.76697e-06 0)
(-4.63181e-08 2.77135e-06 0)
(-4.03292e-08 2.77788e-06 0)
(-4.21588e-08 2.78253e-06 0)
(-4.18235e-08 2.78765e-06 0)
(-4.63362e-08 2.79035e-06 0)
(-4.85026e-08 2.79455e-06 0)
(-5.19946e-08 2.79674e-06 0)
(-5.22006e-08 2.80006e-06 0)
(-5.23676e-08 2.80194e-06 0)
(-5.02167e-08 2.80468e-06 0)
(-4.91667e-08 2.80633e-06 0)
(-4.62427e-08 2.80887e-06 0)
(-4.49517e-08 2.8102e-06 0)
(-4.20872e-08 2.81242e-06 0)
(-4.10104e-08 2.81379e-06 0)
(-3.90481e-08 2.81588e-06 0)
(-3.37659e-07 5.85383e-08 0)
(-3.1888e-07 1.49212e-07 0)
(-3.39516e-07 2.54276e-07 0)
(-3.32183e-07 3.51596e-07 0)
(-3.4141e-07 4.44334e-07 0)
(-3.48894e-07 5.32078e-07 0)
(-3.59712e-07 6.38311e-07 0)
(-3.70043e-07 7.30852e-07 0)
(-3.82725e-07 8.3004e-07 0)
(-3.75059e-07 9.21393e-07 0)
(-4.0069e-07 1.01424e-06 0)
(-3.98658e-07 1.10579e-06 0)
(-4.18136e-07 1.19395e-06 0)
(-4.18034e-07 1.29773e-06 0)
(-4.33297e-07 1.39347e-06 0)
(-4.3679e-07 1.49197e-06 0)
(-4.46547e-07 1.57379e-06 0)
(-4.46415e-07 1.67869e-06 0)
(-4.57038e-07 1.75372e-06 0)
(-4.46528e-07 1.85657e-06 0)
(-4.5388e-07 1.93753e-06 0)
(-4.40868e-07 2.03269e-06 0)
(-4.4343e-07 2.11457e-06 0)
(-4.34682e-07 2.20667e-06 0)
(-4.36423e-07 2.27726e-06 0)
(-4.175e-07 2.35514e-06 0)
(-4.14224e-07 2.4252e-06 0)
(-3.97183e-07 2.49526e-06 0)
(-3.90771e-07 2.55673e-06 0)
(-3.75237e-07 2.62599e-06 0)
(-3.6142e-07 2.68237e-06 0)
(-3.46701e-07 2.74709e-06 0)
(-3.35329e-07 2.78921e-06 0)
(-3.16981e-07 2.84555e-06 0)
(-3.02932e-07 2.88635e-06 0)
(-2.85003e-07 2.93011e-06 0)
(-2.7291e-07 2.96642e-06 0)
(-2.54174e-07 3.00543e-06 0)
(-2.4248e-07 3.03476e-06 0)
(-2.26395e-07 3.06366e-06 0)
(-2.1445e-07 3.09026e-06 0)
(-2.00173e-07 3.11625e-06 0)
(-1.89215e-07 3.13875e-06 0)
(-1.7576e-07 3.15882e-06 0)
(-1.6716e-07 3.17643e-06 0)
(-1.54178e-07 3.19512e-06 0)
(-1.46794e-07 3.20769e-06 0)
(-1.3538e-07 3.22222e-06 0)
(-1.30092e-07 3.23496e-06 0)
(-1.21055e-07 3.24881e-06 0)
(-1.19832e-07 3.25776e-06 0)
(-1.15667e-07 3.27219e-06 0)
(-1.15123e-07 3.28019e-06 0)
(-1.10881e-07 3.2886e-06 0)
(-1.05159e-07 3.29536e-06 0)
(-9.61679e-08 3.30183e-06 0)
(-8.71869e-08 3.30692e-06 0)
(-7.64335e-08 3.31328e-06 0)
(-6.8211e-08 3.31814e-06 0)
(-5.9137e-08 3.32341e-06 0)
(-5.51368e-08 3.32767e-06 0)
(-4.90223e-08 3.33229e-06 0)
(-4.7225e-08 3.33548e-06 0)
(-4.37358e-08 3.33928e-06 0)
(-4.35082e-08 3.34214e-06 0)
(-4.15052e-08 3.3452e-06 0)
(-4.20609e-08 3.34745e-06 0)
(-4.09944e-08 3.34997e-06 0)
(-4.18148e-08 3.35186e-06 0)
(-3.83e-07 6.31292e-08 0)
(-3.73613e-07 1.70607e-07 0)
(-3.95418e-07 2.97749e-07 0)
(-3.85167e-07 4.05409e-07 0)
(-4.05702e-07 5.15171e-07 0)
(-4.07372e-07 6.28586e-07 0)
(-4.13729e-07 7.3945e-07 0)
(-4.35324e-07 8.3553e-07 0)
(-4.52078e-07 9.61822e-07 0)
(-4.56611e-07 1.04508e-06 0)
(-4.77546e-07 1.17031e-06 0)
(-4.84247e-07 1.28343e-06 0)
(-4.98943e-07 1.38618e-06 0)
(-5.05335e-07 1.50232e-06 0)
(-5.14507e-07 1.60836e-06 0)
(-5.24997e-07 1.70877e-06 0)
(-5.33861e-07 1.82469e-06 0)
(-5.41093e-07 1.93301e-06 0)
(-5.45288e-07 2.0391e-06 0)
(-5.53005e-07 2.13956e-06 0)
(-5.51617e-07 2.24388e-06 0)
(-5.54316e-07 2.34844e-06 0)
(-5.4552e-07 2.43855e-06 0)
(-5.42892e-07 2.52863e-06 0)
(-5.31296e-07 2.6273e-06 0)
(-5.31626e-07 2.72091e-06 0)
(-5.15266e-07 2.80905e-06 0)
(-5.10754e-07 2.88982e-06 0)
(-4.90883e-07 2.96956e-06 0)
(-4.80575e-07 3.04291e-06 0)
(-4.61347e-07 3.11384e-06 0)
(-4.47616e-07 3.16852e-06 0)
(-4.24429e-07 3.24203e-06 0)
(-4.08835e-07 3.29713e-06 0)
(-3.88496e-07 3.3559e-06 0)
(-3.7166e-07 3.39993e-06 0)
(-3.50262e-07 3.45389e-06 0)
(-3.33549e-07 3.4928e-06 0)
(-3.1331e-07 3.53468e-06 0)
(-2.97856e-07 3.56964e-06 0)
(-2.77343e-07 3.60358e-06 0)
(-2.6296e-07 3.63369e-06 0)
(-2.45061e-07 3.66206e-06 0)
(-2.32044e-07 3.68458e-06 0)
(-2.1498e-07 3.71134e-06 0)
(-2.04677e-07 3.72834e-06 0)
(-1.89873e-07 3.74988e-06 0)
(-1.80549e-07 3.76373e-06 0)
(-1.67308e-07 3.78004e-06 0)
(-1.576e-07 3.79091e-06 0)
(-1.4319e-07 3.80124e-06 0)
(-1.31355e-07 3.80978e-06 0)
(-1.16547e-07 3.81825e-06 0)
(-1.08424e-07 3.82513e-06 0)
(-9.87502e-08 3.83266e-06 0)
(-9.86275e-08 3.83797e-06 0)
(-9.64985e-08 3.84443e-06 0)
(-9.92935e-08 3.8489e-06 0)
(-1.00005e-07 3.85375e-06 0)
(-1.02809e-07 3.85713e-06 0)
(-1.01374e-07 3.86106e-06 0)
(-9.94538e-08 3.86377e-06 0)
(-9.52594e-08 3.86666e-06 0)
(-9.21395e-08 3.86915e-06 0)
(-8.72911e-08 3.8718e-06 0)
(-8.44507e-08 3.87397e-06 0)
(-8.01217e-08 3.87631e-06 0)
(-7.77768e-08 3.87833e-06 0)
(-7.42656e-08 3.88049e-06 0)
(-4.48221e-07 7.78684e-08 0)
(-4.41154e-07 1.91997e-07 0)
(-4.56133e-07 3.2769e-07 0)
(-4.6008e-07 4.60286e-07 0)
(-4.68933e-07 5.71058e-07 0)
(-4.81422e-07 7.00572e-07 0)
(-4.96917e-07 8.25809e-07 0)
(-5.05848e-07 9.44368e-07 0)
(-5.29403e-07 1.07438e-06 0)
(-5.26767e-07 1.1905e-06 0)
(-5.56154e-07 1.31588e-06 0)
(-5.57759e-07 1.43505e-06 0)
(-5.84966e-07 1.54967e-06 0)
(-5.9305e-07 1.6833e-06 0)
(-6.12258e-07 1.80725e-06 0)
(-6.21615e-07 1.93e-06 0)
(-6.32263e-07 2.04533e-06 0)
(-6.43024e-07 2.1751e-06 0)
(-6.57839e-07 2.27898e-06 0)
(-6.54925e-07 2.4101e-06 0)
(-6.64434e-07 2.52198e-06 0)
(-6.59376e-07 2.64349e-06 0)
(-6.68009e-07 2.75375e-06 0)
(-6.56849e-07 2.87494e-06 0)
(-6.56024e-07 2.96597e-06 0)
(-6.40028e-07 3.07459e-06 0)
(-6.34126e-07 3.17103e-06 0)
(-6.17352e-07 3.26834e-06 0)
(-6.06084e-07 3.35424e-06 0)
(-5.88614e-07 3.44608e-06 0)
(-5.73522e-07 3.5247e-06 0)
(-5.50929e-07 3.61186e-06 0)
(-5.34872e-07 3.6755e-06 0)
(-5.0942e-07 3.7454e-06 0)
(-4.91556e-07 3.80428e-06 0)
(-4.63681e-07 3.86468e-06 0)
(-4.44995e-07 3.91592e-06 0)
(-4.19596e-07 3.96917e-06 0)
(-4.0047e-07 4.00986e-06 0)
(-3.76537e-07 4.05473e-06 0)
(-3.58284e-07 4.09081e-06 0)
(-3.35422e-07 4.12363e-06 0)
(-3.18824e-07 4.15345e-06 0)
(-2.97125e-07 4.18345e-06 0)
(-2.82734e-07 4.20392e-06 0)
(-2.62594e-07 4.22851e-06 0)
(-2.4926e-07 4.24611e-06 0)
(-2.31331e-07 4.26578e-06 0)
(-2.18985e-07 4.28022e-06 0)
(-2.0438e-07 4.29815e-06 0)
(-1.96949e-07 4.31006e-06 0)
(-1.87347e-07 4.32524e-06 0)
(-1.83189e-07 4.33491e-06 0)
(-1.75558e-07 4.34625e-06 0)
(-1.6738e-07 4.35494e-06 0)
(-1.54996e-07 4.36274e-06 0)
(-1.41749e-07 4.36852e-06 0)
(-1.27408e-07 4.37605e-06 0)
(-1.16918e-07 4.38095e-06 0)
(-1.04775e-07 4.38706e-06 0)
(-9.83028e-08 4.3916e-06 0)
(-9.02603e-08 4.39619e-06 0)
(-8.69068e-08 4.40006e-06 0)
(-8.20744e-08 4.40397e-06 0)
(-8.07603e-08 4.40696e-06 0)
(-7.77667e-08 4.40991e-06 0)
(-7.71626e-08 4.41224e-06 0)
(-7.49104e-08 4.41446e-06 0)
(-7.44796e-08 4.41642e-06 0)
(-5.10164e-07 7.58618e-08 0)
(-5.13812e-07 2.08047e-07 0)
(-5.17904e-07 3.60952e-07 0)
(-5.24719e-07 4.9837e-07 0)
(-5.40567e-07 6.25349e-07 0)
(-5.45851e-07 7.67003e-07 0)
(-5.65107e-07 9.02684e-07 0)
(-5.84163e-07 1.02504e-06 0)
(-6.04746e-07 1.17468e-06 0)
(-6.13736e-07 1.28432e-06 0)
(-6.48129e-07 1.4357e-06 0)
(-6.57698e-07 1.57024e-06 0)
(-6.80677e-07 1.69915e-06 0)
(-6.90717e-07 1.84168e-06 0)
(-7.09178e-07 1.97763e-06 0)
(-7.29468e-07 2.10443e-06 0)
(-7.3996e-07 2.24834e-06 0)
(-7.55407e-07 2.37633e-06 0)
(-7.63894e-07 2.51797e-06 0)
(-7.7409e-07 2.64406e-06 0)
(-7.8033e-07 2.7761e-06 0)
(-7.85878e-07 2.90586e-06 0)
(-7.77626e-07 3.02692e-06 0)
(-7.81402e-07 3.14647e-06 0)
(-7.7518e-07 3.27272e-06 0)
(-7.70829e-07 3.3933e-06 0)
(-7.55438e-07 3.50348e-06 0)
(-7.4973e-07 3.6131e-06 0)
(-7.28721e-07 3.71645e-06 0)
(-7.15589e-07 3.81162e-06 0)
(-6.92114e-07 3.90896e-06 0)
(-6.74155e-07 3.9839e-06 0)
(-6.47936e-07 4.07928e-06 0)
(-6.25153e-07 4.15101e-06 0)
(-5.97497e-07 4.23088e-06 0)
(-5.72045e-07 4.29226e-06 0)
(-5.41914e-07 4.35857e-06 0)
(-5.15992e-07 4.41246e-06 0)
(-4.86723e-07 4.46646e-06 0)
(-4.62657e-07 4.51188e-06 0)
(-4.35104e-07 4.55712e-06 0)
(-4.11977e-07 4.59489e-06 0)
(-3.84189e-07 4.63361e-06 0)
(-3.6377e-07 4.66059e-06 0)
(-3.3828e-07 4.6956e-06 0)
(-3.19902e-07 4.71768e-06 0)
(-2.97607e-07 4.74365e-06 0)
(-2.8194e-07 4.76451e-06 0)
(-2.62478e-07 4.78352e-06 0)
(-2.47203e-07 4.79598e-06 0)
(-2.27938e-07 4.81065e-06 0)
(-2.10879e-07 4.819e-06 0)
(-1.90128e-07 4.82974e-06 0)
(-1.75646e-07 4.83584e-06 0)
(-1.60052e-07 4.8452e-06 0)
(-1.55797e-07 4.851e-06 0)
(-1.50458e-07 4.85826e-06 0)
(-1.52628e-07 4.86234e-06 0)
(-1.51605e-07 4.86819e-06 0)
(-1.51591e-07 4.87084e-06 0)
(-1.48205e-07 4.87437e-06 0)
(-1.4385e-07 4.87677e-06 0)