/*--------------------------------*- C++ -*----------------------------------*\
  =========                 |
  \\      /  F ield         | OpenFOAM: The Open Source CFD Toolbox
   \\    /   O peration     | Website:  https://openfoam.org
    \\  /    A nd           | Version:  10
     \\/     M anipulation  |
\*---------------------------------------------------------------------------*/
FoamFile
{
    format      ascii;
    class       volVectorField;
    location    "0";
    object      U_d1;
}
// * * * * * * * * * * * * * * * * * * * * * * * * * * * * * * * * * * * * * //

dimensions      [0 1 -1 0 0 0 0];

internalField   nonuniform List<vector> 
66268
(
(5.1495e-07 -3.76407e-07 0)
(6.02091e-07 -2.73293e-07 0)
(2.16677e-07 7.12081e-07 0)
(1.86978e-07 -1.34791e-06 0)
(2.0517e-07 2.50978e-07 0)
(1.93932e-07 -7.95145e-07 0)
(6.00981e-08 1.66036e-06 0)
(-4.46566e-07 -1.43714e-06 0)
(-2.02092e-07 -8.32402e-07 0)
(3.00669e-07 7.44194e-07 0)
(-5.30466e-07 -8.32084e-07 0)
(-2.79283e-08 1.09752e-06 0)
(-1.08835e-07 -1.09266e-06 0)
(6.27756e-07 5.48917e-07 0)
(8.29054e-08 2.02317e-07 0)
(1.90063e-07 8.43099e-07 0)
(-5.22212e-07 3.82331e-07 0)
(-4.8262e-07 6.32504e-07 0)
(-7.83796e-07 1.26686e-06 0)
(-7.04898e-07 7.50068e-07 0)
(-5.53827e-07 1.44073e-07 0)
(-6.62587e-07 2.39234e-07 0)
(-1.64032e-07 5.92402e-07 0)
(-4.41833e-07 -1.70557e-08 0)
(-4.31327e-08 -7.32434e-08 0)
(-2.16089e-07 -1.40075e-07 0)
(4.35189e-07 -1.91164e-07 0)
(2.15218e-07 3.08981e-07 0)
(5.08004e-07 1.65949e-07 0)
(3.70774e-07 1.76204e-07 0)
(5.30102e-07 2.36272e-07 0)
(6.63747e-07 1.89206e-07 0)
(5.93025e-07 1.57079e-07 0)
(6.12473e-07 8.86586e-08 0)
(6.00528e-07 -1.57477e-07 0)
(6.18079e-07 -3.77961e-07 0)
(4.63113e-07 -1.42036e-07 0)
(5.47694e-07 -2.03066e-07 0)
(3.70069e-07 -3.69636e-07 0)
(6.133e-07 -5.04711e-07 0)
(5.79412e-07 -4.25395e-07 0)
(7.65557e-07 -6.05849e-07 0)
(8.32809e-07 -2.69669e-07 0)
(8.42199e-07 -5.01721e-07 0)
(9.21363e-07 -4.96672e-07 0)
(8.13945e-07 -3.91428e-07 0)
(8.55226e-07 -7.35232e-07 0)
(7.97198e-07 -5.54952e-07 0)
(8.09025e-07 -8.20618e-07 0)
(7.78505e-07 -6.62528e-07 0)
(7.19057e-07 -8.4822e-07 0)
(6.70343e-07 -7.53323e-07 0)
(5.8599e-07 -7.3535e-07 0)
(5.50401e-07 -8.63418e-07 0)
(5.12145e-07 -7.56019e-07 0)
(4.73952e-07 -8.50625e-07 0)
(4.59557e-07 -8.06628e-07 0)
(4.32528e-07 -8.01331e-07 0)
(4.08241e-07 -7.97586e-07 0)
(3.95974e-07 -8.06187e-07 0)
(3.8911e-07 -7.9274e-07 0)
(3.82332e-07 -7.97168e-07 0)
(3.87066e-07 -7.87236e-07 0)
(3.88613e-07 -8.0603e-07 0)
(3.97059e-07 -7.9427e-07 0)
(4.01109e-07 -7.99776e-07 0)
(4.07723e-07 -8.01812e-07 0)
(4.09245e-07 -8.10596e-07 0)
(4.13072e-07 -8.09332e-07 0)
(9.93322e-07 6.63245e-07 0)
(-1.29464e-07 2.93834e-07 0)
(9.27456e-07 -1.12707e-06 0)
(-2.27255e-07 1.17898e-06 0)
(5.73646e-07 5.40445e-07 0)
(-1.14136e-06 6.37885e-07 0)
(7.43187e-07 1.41542e-06 0)
(-2.52993e-06 -2.87557e-07 0)
(1.38119e-06 1.46405e-06 0)
(-2.96906e-06 -3.98921e-07 0)
(2.1776e-06 3.22725e-07 0)
(-2.28775e-06 7.67481e-08 0)
(2.44539e-06 2.13977e-06 0)
(-2.4541e-06 7.83746e-07 0)
(1.47133e-06 -9.88646e-07 0)
(-2.0404e-06 3.30471e-07 0)
(4.62762e-07 -1.70099e-06 0)
(-2.74311e-07 5.85758e-07 0)
(3.73631e-07 -1.09152e-06 0)
(5.16508e-07 1.15582e-06 0)
(2.79456e-07 9.13295e-07 0)
(7.17816e-07 1.7983e-06 0)
(-5.55968e-07 2.01169e-06 0)
(2.53714e-07 2.45388e-06 0)
(-1.72215e-07 1.5281e-06 0)
(3.38168e-07 2.3993e-06 0)
(-6.18082e-07 2.731e-06 0)
(3.45859e-08 9.65386e-07 0)
(-8.7149e-07 2.39807e-06 0)
(-1.25521e-07 6.72183e-08 0)
(-2.41818e-07 2.94161e-06 0)
(1.44033e-07 9.6416e-07 0)
(4.40993e-07 2.04887e-06 0)
(4.66375e-07 1.65949e-06 0)
(3.23667e-07 2.69559e-06 0)
(3.32698e-07 2.50008e-06 0)
(3.89453e-07 1.83113e-06 0)
(-1.61944e-07 2.81112e-06 0)
(4.56781e-07 2.31692e-06 0)
(-3.886e-07 2.51056e-06 0)
(3.11191e-07 2.16452e-06 0)
(-4.45457e-07 3.13842e-06 0)
(-1.0443e-07 2.34477e-06 0)
(-5.89968e-07 2.81643e-06 0)
(-4.36814e-07 2.23357e-06 0)
(-5.40962e-07 2.43005e-06 0)
(-5.47237e-07 2.58504e-06 0)
(-4.99388e-07 2.79348e-06 0)
(-4.93936e-07 2.80526e-06 0)
(-5.43014e-07 2.83578e-06 0)
(-4.35527e-07 2.96819e-06 0)
(-4.35307e-07 2.86849e-06 0)
(-3.51284e-07 3.07428e-06 0)
(-2.76558e-07 2.99722e-06 0)
(-2.85039e-07 3.00082e-06 0)
(-2.15886e-07 3.10163e-06 0)
(-2.46179e-07 3.14995e-06 0)
(-2.21763e-07 3.08155e-06 0)
(-2.29376e-07 2.85759e-06 0)
(-1.89558e-07 2.80226e-06 0)
(-1.70231e-07 2.74077e-06 0)
(-1.3402e-07 2.79061e-06 0)
(-1.45605e-07 2.80156e-06 0)
(-1.47748e-07 2.84468e-06 0)
(-1.73846e-07 2.86487e-06 0)
(-1.82547e-07 2.84864e-06 0)
(-2.03509e-07 2.8415e-06 0)
(-2.0712e-07 2.86926e-06 0)
(-2.21108e-07 2.85269e-06 0)
(-1.87338e-06 -1.07035e-06 0)
(-1.78022e-07 7.26725e-07 0)
(-2.01519e-06 1.80031e-07 0)
(4.04048e-07 -9.04247e-07 0)
(4.27176e-07 8.50625e-07 0)
(1.04129e-06 -1.00334e-06 0)
(1.78194e-07 3.49779e-06 0)
(1.09654e-06 -1.96867e-06 0)
(-4.55197e-07 2.09533e-07 0)
(1.05015e-06 1.83461e-06 0)
(-1.55204e-06 -2.40124e-07 0)
(-4.00657e-08 3.26996e-06 0)
(-1.5907e-06 -1.1539e-06 0)
(2.02118e-07 2.92177e-06 0)
(3.17089e-08 1.03232e-06 0)
(7.71764e-07 2.47624e-06 0)
(-3.09967e-07 3.96707e-06 0)
(1.00152e-06 2.44429e-06 0)
(-2.40042e-08 4.65142e-06 0)
(8.18105e-07 3.52882e-06 0)
(-1.0701e-06 3.45251e-06 0)
(4.69095e-07 2.70396e-06 0)
(-6.6676e-07 3.31257e-06 0)
(5.56717e-08 3.90481e-06 0)
(-1.13995e-06 4.37648e-06 0)
(7.21397e-07 3.87038e-06 0)
(-1.17316e-06 4.83121e-06 0)
(3.80895e-07 5.5486e-06 0)
(-4.36312e-07 5.99785e-06 0)
(-4.6048e-07 6.82117e-06 0)
(-8.23859e-08 6.99065e-06 0)
(-1.38212e-06 6.57808e-06 0)
(-3.55586e-07 7.40215e-06 0)
(-1.30839e-06 6.42054e-06 0)
(-3.23465e-07 6.82199e-06 0)
(-9.4854e-07 7.39497e-06 0)
(-3.87286e-07 5.91617e-06 0)
(-7.04842e-07 9.34093e-06 0)
(-4.35225e-07 6.86331e-06 0)
(-9.05829e-07 7.95796e-06 0)
(-2.37411e-07 7.88509e-06 0)
(-5.74831e-07 7.17999e-06 0)
(4.82175e-08 8.81659e-06 0)
(-2.18955e-07 7.71278e-06 0)
(8.07008e-08 9.17726e-06 0)
(-6.6053e-08 8.81405e-06 0)
(1.88261e-08 9.02817e-06 0)
(-4.58205e-08 9.56742e-06 0)
(8.88169e-08 8.39809e-06 0)
(1.44736e-07 9.49345e-06 0)
(2.55844e-07 9.17154e-06 0)
(2.09492e-07 9.31734e-06 0)
(1.93461e-07 9.95019e-06 0)
(1.00179e-07 9.27462e-06 0)
(9.05264e-08 9.88604e-06 0)
(2.41732e-08 9.85067e-06 0)
(-4.60973e-08 1.00496e-05 0)
(-1.06176e-07 1.02699e-05 0)
(-1.44352e-07 1.03694e-05 0)
(-1.73587e-07 1.05038e-05 0)
(-1.80677e-07 1.05062e-05 0)
(-1.91107e-07 1.05051e-05 0)
(-1.71088e-07 1.04348e-05 0)
(-1.71046e-07 1.03897e-05 0)
(-1.43199e-07 1.04227e-05 0)
(-1.4037e-07 1.04516e-05 0)
(-1.13184e-07 1.05211e-05 0)
(-1.13137e-07 1.05414e-05 0)
(-9.70049e-08 1.05882e-05 0)
(1.75e-06 1.1863e-06 0)
(1.8797e-06 4.99582e-07 0)
(5.7831e-07 -7.21641e-07 0)
(4.49145e-07 2.85338e-06 0)
(-2.32354e-06 2.28765e-06 0)
(6.86933e-07 -8.30825e-07 0)
(-2.15108e-06 4.32116e-06 0)
(-1.67153e-06 -1.30327e-06 0)
(-8.28817e-07 2.36822e-06 0)
(-1.29151e-06 -3.28358e-07 0)
(2.85157e-07 -3.23744e-07 0)
(-7.67117e-07 1.79501e-06 0)
(2.37831e-06 2.13241e-06 0)
(-1.03587e-06 5.14987e-06 0)
(5.42829e-07 1.18374e-06 0)
(-1.038e-06 3.25452e-06 0)
(-1.94737e-06 1.25747e-06 0)
(-2.65821e-06 3.95925e-06 0)
(-1.44226e-06 1.89289e-06 0)
(-2.89364e-06 3.22557e-06 0)
(-7.02489e-07 4.60829e-06 0)
(-2.69044e-06 7.52755e-06 0)
(-9.05886e-07 7.34788e-06 0)
(-1.82241e-06 7.17576e-06 0)
(-2.42741e-07 9.56497e-06 0)
(-1.86026e-06 8.26033e-06 0)
(-4.57134e-07 9.2406e-06 0)
(-2.14974e-06 1.03944e-05 0)
(-1.41042e-06 8.65208e-06 0)
(-2.07027e-06 9.69025e-06 0)
(-1.03659e-06 9.92697e-06 0)
(-1.46554e-06 9.84625e-06 0)
(-4.00032e-07 1.24285e-05 0)
(-1.31315e-06 1.22425e-05 0)
(-4.18453e-07 1.43569e-05 0)
(-1.17166e-06 1.32417e-05 0)
(-6.49666e-07 1.39796e-05 0)
(-7.51188e-07 1.5144e-05 0)
(-1.13124e-06 1.38473e-05 0)
(-5.07486e-07 1.62667e-05 0)
(-9.40492e-07 1.60608e-05 0)
(-5.31978e-07 1.78018e-05 0)
(-7.35356e-07 1.74983e-05 0)
(-8.10595e-07 1.71492e-05 0)
(-6.68108e-07 1.72256e-05 0)
(-9.43285e-07 1.67189e-05 0)
(-7.71251e-07 1.74622e-05 0)
(-9.15375e-07 1.79752e-05 0)
(-1.02189e-06 1.88093e-05 0)
(-9.1145e-07 1.9155e-05 0)
(-1.13951e-06 1.90485e-05 0)
(-9.30063e-07 1.88356e-05 0)
(-9.9013e-07 1.90392e-05 0)
(-8.79934e-07 1.93004e-05 0)
(-7.89063e-07 1.96516e-05 0)
(-7.53775e-07 1.93583e-05 0)
(-6.70386e-07 1.94535e-05 0)
(-6.47855e-07 1.93812e-05 0)
(-6.19431e-07 1.92766e-05 0)
(-5.86372e-07 1.9327e-05 0)
(-5.85537e-07 1.95213e-05 0)
(-5.45209e-07 1.98226e-05 0)
(-5.57092e-07 1.99943e-05 0)
(-5.3145e-07 2.01941e-05 0)
(-5.53126e-07 2.03278e-05 0)
(-5.45652e-07 2.04356e-05 0)
(-5.65522e-07 2.04906e-05 0)
(-5.61412e-07 2.05443e-05 0)
(-5.76588e-07 2.05865e-05 0)
(-1.14089e-06 -9.29432e-07 0)
(9.91449e-07 3.46016e-07 0)
(-2.03843e-06 -9.19129e-07 0)
(6.15424e-07 -2.82404e-06 0)
(-9.78931e-07 1.79377e-06 0)
(-8.61952e-07 -1.04624e-06 0)
(4.82843e-07 3.39265e-06 0)
(-9.20694e-07 -5.94413e-07 0)
(1.03681e-06 5.49802e-07 0)
(-4.72026e-06 2.95437e-06 0)
(4.16568e-07 8.91572e-07 0)
(-2.23354e-06 6.76671e-06 0)
(-7.41925e-07 -7.39607e-07 0)
(-1.0319e-06 3.44971e-06 0)
(-1.54911e-06 3.35149e-06 0)
(-6.92654e-07 2.50365e-06 0)
(-1.92584e-06 4.56318e-06 0)
(-5.606e-08 6.65794e-06 0)
(-2.38416e-06 7.69911e-06 0)
(3.73709e-09 8.71246e-06 0)
(-1.67011e-06 8.26705e-06 0)
(-6.54505e-08 7.77917e-06 0)
(-2.32794e-06 9.87124e-06 0)
(-1.20439e-06 1.04993e-05 0)
(-3.1218e-06 1.0929e-05 0)
(-2.45846e-06 1.11196e-05 0)
(-3.12595e-06 1.2605e-05 0)
(-2.64285e-06 1.29889e-05 0)
(-3.11203e-06 1.53976e-05 0)
(-2.49447e-06 1.75103e-05 0)
(-3.10702e-06 1.76412e-05 0)
(-3.37208e-06 1.80085e-05 0)
(-2.99107e-06 1.83318e-05 0)
(-3.52183e-06 1.82065e-05 0)
(-2.80556e-06 1.92342e-05 0)
(-3.96602e-06 1.91729e-05 0)
(-2.75071e-06 2.0798e-05 0)
(-3.44999e-06 2.13335e-05 0)
(-3.26694e-06 2.22747e-05 0)
(-2.96035e-06 2.33272e-05 0)
(-3.31145e-06 2.27831e-05 0)
(-3.26811e-06 2.352e-05 0)
(-3.8021e-06 2.36615e-05 0)
(-3.3575e-06 2.45493e-05 0)
(-3.65227e-06 2.50385e-05 0)
(-3.08192e-06 2.54526e-05 0)
(-3.06163e-06 2.61044e-05 0)
(-2.95438e-06 2.55178e-05 0)
(-2.9038e-06 2.60148e-05 0)
(-2.82789e-06 2.62199e-05 0)
(-2.79094e-06 2.66199e-05 0)
(-2.76134e-06 2.75674e-05 0)
(-2.69666e-06 2.7664e-05 0)
(-2.77591e-06 2.83038e-05 0)
(-2.76833e-06 2.8599e-05 0)
(-2.81962e-06 2.90885e-05 0)
(-2.74634e-06 2.9483e-05 0)
(-2.69879e-06 2.973e-05 0)
(-2.59272e-06 3.02718e-05 0)
(-2.51763e-06 3.03043e-05 0)
(-2.40502e-06 3.04653e-05 0)
(-2.34566e-06 3.05617e-05 0)
(-2.25216e-06 3.06325e-05 0)
(-2.19722e-06 3.06206e-05 0)
(-2.12651e-06 3.05936e-05 0)
(-2.08815e-06 3.07002e-05 0)
(-2.02732e-06 3.07777e-05 0)
(-1.9918e-06 3.08593e-05 0)
(-1.93762e-06 3.09595e-05 0)
(-1.50696e-07 1.61993e-06 0)
(-1.27685e-06 -4.89598e-07 0)
(-4.83752e-09 -7.28605e-07 0)
(4.01182e-07 3.08329e-06 0)
(-1.07257e-07 1.08732e-06 0)
(2.54584e-07 -9.90345e-08 0)
(-1.21093e-06 4.86529e-06 0)
(-2.7469e-06 6.13151e-07 0)
(5.80344e-07 -1.56921e-06 0)
(1.4913e-07 3.91018e-08 0)
(4.61736e-07 2.96109e-06 0)
(-1.01401e-06 1.32275e-06 0)
(-7.75043e-07 3.9772e-06 0)
(9.98528e-08 4.94795e-06 0)
(-1.32426e-06 3.64057e-06 0)
(-1.05207e-06 4.91713e-06 0)
(-2.57261e-06 5.23451e-06 0)
(-5.66629e-07 6.002e-06 0)
(-4.00751e-06 5.27315e-06 0)
(-3.04922e-06 8.00337e-06 0)
(-4.67838e-06 8.56157e-06 0)
(-4.16539e-06 1.1342e-05 0)
(-4.17813e-06 1.16101e-05 0)
(-4.01417e-06 1.20746e-05 0)
(-4.76856e-06 1.38686e-05 0)
(-4.31239e-06 1.50429e-05 0)
(-4.58899e-06 1.6443e-05 0)
(-4.29094e-06 1.8407e-05 0)
(-4.60084e-06 1.75603e-05 0)
(-5.00485e-06 1.88461e-05 0)
(-5.88846e-06 1.76752e-05 0)
(-5.39701e-06 2.09702e-05 0)
(-5.83702e-06 2.27392e-05 0)
(-5.23777e-06 2.41936e-05 0)
(-6.13345e-06 2.44398e-05 0)
(-4.91884e-06 2.5497e-05 0)
(-5.67866e-06 2.77907e-05 0)
(-5.06606e-06 2.61347e-05 0)
(-5.47089e-06 2.91266e-05 0)
(-5.15949e-06 2.99079e-05 0)
(-5.63331e-06 2.97544e-05 0)
(-4.8552e-06 3.11522e-05 0)
(-5.02831e-06 3.2505e-05 0)
(-4.7092e-06 3.29849e-05 0)
(-4.85096e-06 3.37141e-05 0)
(-4.53742e-06 3.47266e-05 0)
(-4.60491e-06 3.37192e-05 0)
(-4.4891e-06 3.47778e-05 0)
(-4.20325e-06 3.59781e-05 0)
(-4.10343e-06 3.64497e-05 0)
(-3.71985e-06 3.667e-05 0)
(-3.59487e-06 3.69366e-05 0)
(-3.41255e-06 3.68978e-05 0)
(-3.13153e-06 3.71819e-05 0)
(-3.07331e-06 3.76312e-05 0)
(-2.86643e-06 3.78371e-05 0)
(-2.89702e-06 3.84316e-05 0)
(-2.81086e-06 3.85494e-05 0)
(-2.87915e-06 3.86651e-05 0)
(-2.91778e-06 3.89308e-05 0)
(-2.95046e-06 3.9215e-05 0)
(-2.95703e-06 3.94515e-05 0)
(-2.96858e-06 3.97495e-05 0)
(-2.95687e-06 3.99103e-05 0)
(-2.94279e-06 4.01015e-05 0)
(-2.90299e-06 4.03146e-05 0)
(-2.87872e-06 4.05048e-05 0)
(-2.8323e-06 4.0686e-05 0)
(-2.80123e-06 4.08569e-05 0)
(-1.2814e-06 -1.72513e-06 0)
(6.07387e-07 3.89323e-07 0)
(-1.51954e-06 2.1868e-07 0)
(-1.21346e-07 -2.74566e-06 0)
(-7.29088e-07 1.10482e-06 0)
(-1.30243e-06 -1.74058e-06 0)
(-3.02324e-06 9.02604e-07 0)
(-4.11151e-06 1.70381e-06 0)
(-3.96664e-06 2.47994e-06 0)
(-8.38293e-07 2.74085e-06 0)
(-1.38828e-06 9.7501e-07 0)
(-6.98677e-07 5.58742e-06 0)
(-9.27924e-07 1.24143e-06 0)
(-4.30327e-06 3.49923e-06 0)
(-2.73295e-06 4.01778e-06 0)
(-4.57667e-06 2.48835e-06 0)
(-4.36761e-06 7.76189e-06 0)
(-6.13444e-06 7.1329e-06 0)
(-4.56919e-06 7.60377e-06 0)
(-5.86407e-06 1.10365e-05 0)
(-4.1223e-06 1.04108e-05 0)
(-5.62203e-06 1.21112e-05 0)
(-6.67806e-06 1.37264e-05 0)
(-7.04021e-06 1.39278e-05 0)
(-6.12951e-06 1.57292e-05 0)
(-6.55018e-06 1.71259e-05 0)
(-6.32176e-06 1.87441e-05 0)
(-7.32056e-06 1.98952e-05 0)
(-7.58719e-06 2.13799e-05 0)
(-7.23902e-06 2.29805e-05 0)
(-7.17602e-06 2.47606e-05 0)
(-6.62916e-06 2.64592e-05 0)
(-7.04404e-06 2.73189e-05 0)
(-6.88729e-06 2.66083e-05 0)
(-7.26966e-06 2.93604e-05 0)
(-6.96561e-06 3.01259e-05 0)
(-7.28028e-06 3.06809e-05 0)
(-7.42779e-06 3.25714e-05 0)
(-7.02683e-06 3.36815e-05 0)
(-7.30598e-06 3.4305e-05 0)
(-7.05423e-06 3.57513e-05 0)
(-7.05005e-06 3.73422e-05 0)
(-6.89124e-06 3.64573e-05 0)
(-7.23423e-06 3.78707e-05 0)
(-6.90578e-06 3.87319e-05 0)
(-7.24562e-06 3.97052e-05 0)
(-7.08048e-06 3.96551e-05 0)
(-6.88179e-06 4.08492e-05 0)
(-7.0273e-06 4.12512e-05 0)
(-6.80716e-06 4.21255e-05 0)
(-6.99401e-06 4.26492e-05 0)
(-6.84588e-06 4.279e-05 0)
(-6.87053e-06 4.39794e-05 0)
(-6.70372e-06 4.40836e-05 0)
(-6.64999e-06 4.44844e-05 0)
(-6.4452e-06 4.4799e-05 0)
(-6.32131e-06 4.4945e-05 0)
(-6.1888e-06 4.53449e-05 0)
(-6.00766e-06 4.54986e-05 0)
(-5.80637e-06 4.59333e-05 0)
(-5.63926e-06 4.62179e-05 0)
(-5.45726e-06 4.65931e-05 0)
(-5.28737e-06 4.68953e-05 0)
(-5.14105e-06 4.71303e-05 0)
(-4.99123e-06 4.73997e-05 0)
(-4.87906e-06 4.76194e-05 0)
(-4.75864e-06 4.78146e-05 0)
(-4.66791e-06 4.8006e-05 0)
(-4.5765e-06 4.81401e-05 0)
(-7.12177e-07 1.74003e-06 0)
(-1.69045e-06 -1.11828e-06 0)
(5.21608e-07 -7.70263e-07 0)
(3.56701e-07 3.07168e-06 0)
(-9.69374e-07 -2.70794e-08 0)
(3.25623e-06 -1.87778e-06 0)
(6.01851e-07 2.03446e-06 0)
(2.02508e-06 1.01794e-06 0)
(1.0729e-06 5.6344e-07 0)
(-1.78633e-06 1.65398e-06 0)
(-5.0542e-06 3.07027e-06 0)
(-2.07762e-06 2.31762e-06 0)
(-5.40378e-06 5.62793e-07 0)
(-2.18484e-06 3.39597e-06 0)
(-3.85789e-06 4.70426e-06 0)
(-2.52413e-06 3.95859e-06 0)
(-4.23109e-06 5.46853e-06 0)
(-5.0329e-06 7.20564e-06 0)
(-5.27016e-06 7.48448e-06 0)
(-5.85081e-06 1.02678e-05 0)
(-8.15129e-06 1.09798e-05 0)
(-7.61681e-06 1.03951e-05 0)
(-7.57009e-06 1.25948e-05 0)
(-9.38151e-06 1.63235e-05 0)
(-8.5596e-06 1.77721e-05 0)
(-1.09815e-05 1.84584e-05 0)
(-9.30812e-06 1.97538e-05 0)
(-1.04789e-05 2.07954e-05 0)
(-9.8462e-06 2.27864e-05 0)
(-1.06068e-05 2.4582e-05 0)
(-1.08232e-05 2.46223e-05 0)
(-1.1026e-05 2.73536e-05 0)
(-1.20345e-05 2.85566e-05 0)
(-1.18549e-05 3.02816e-05 0)
(-1.16739e-05 3.11883e-05 0)
(-1.19442e-05 3.25624e-05 0)
(-1.21211e-05 3.36916e-05 0)
(-1.14818e-05 3.47042e-05 0)
(-1.14657e-05 3.73099e-05 0)
(-1.12169e-05 3.79302e-05 0)
(-1.12495e-05 3.93151e-05 0)
(-1.1058e-05 4.08063e-05 0)
(-1.09432e-05 4.08966e-05 0)
(-1.07672e-05 4.23386e-05 0)
(-1.05097e-05 4.293e-05 0)
(-1.06108e-05 4.34268e-05 0)
(-1.0167e-05 4.4839e-05 0)
(-1.00347e-05 4.46529e-05 0)
(-9.69565e-06 4.65128e-05 0)
(-9.46378e-06 4.67515e-05 0)
(-9.26799e-06 4.70538e-05 0)
(-9.09899e-06 4.80689e-05 0)
(-8.76277e-06 4.84487e-05 0)
(-8.68284e-06 4.9006e-05 0)
(-8.44364e-06 4.9798e-05 0)
(-8.38882e-06 5.03027e-05 0)
(-8.1982e-06 5.06191e-05 0)
(-8.04376e-06 5.11251e-05 0)
(-7.90464e-06 5.18041e-05 0)
(-7.75445e-06 5.20889e-05 0)
(-7.64703e-06 5.24625e-05 0)
(-7.5039e-06 5.28312e-05 0)
(-7.39364e-06 5.3035e-05 0)
(-7.27496e-06 5.32849e-05 0)
(-7.17301e-06 5.34481e-05 0)
(-7.05285e-06 5.36474e-05 0)
(-6.93675e-06 5.38577e-05 0)
(-6.82064e-06 5.39784e-05 0)
(-6.70621e-06 5.41542e-05 0)
(-1.11259e-06 -2.34135e-06 0)
(-8.72631e-07 9.56928e-07 0)
(5.81469e-07 1.51854e-06 0)
(-1.44385e-06 -4.04972e-06 0)
(3.91195e-07 2.25626e-06 0)
(-2.38214e-06 -7.67135e-07 0)
(-1.52471e-06 -1.29809e-06 0)
(-3.42535e-06 2.76314e-06 0)
(-4.12844e-06 -6.11653e-07 0)
(-5.87443e-07 -2.23589e-06 0)
(-2.06452e-06 1.68725e-06 0)
(-3.81932e-06 4.65289e-06 0)
(-3.68361e-06 9.72503e-07 0)
(-4.89234e-06 4.12505e-06 0)
(-7.5752e-06 4.41158e-06 0)
(-6.09193e-06 2.2568e-06 0)
(-7.18115e-06 5.61304e-06 0)
(-7.60473e-06 6.94893e-06 0)
(-8.96075e-06 8.10695e-06 0)
(-8.52202e-06 8.34738e-06 0)
(-8.99507e-06 9.75886e-06 0)
(-9.22756e-06 1.4226e-05 0)
(-8.66881e-06 1.2196e-05 0)
(-9.64118e-06 1.46777e-05 0)
(-1.01928e-05 1.54909e-05 0)
(-1.05584e-05 1.80764e-05 0)
(-1.15285e-05 2.14818e-05 0)
(-1.24877e-05 2.11792e-05 0)
(-1.30892e-05 2.40136e-05 0)
(-1.29828e-05 2.45231e-05 0)
(-1.34957e-05 2.75668e-05 0)
(-1.33084e-05 2.77537e-05 0)
(-1.32614e-05 2.91429e-05 0)
(-1.38263e-05 3.109e-05 0)
(-1.39222e-05 3.27645e-05 0)
(-1.43176e-05 3.28814e-05 0)
(-1.34047e-05 3.58418e-05 0)
(-1.38973e-05 3.83874e-05 0)
(-1.31082e-05 3.89039e-05 0)
(-1.37339e-05 3.93288e-05 0)
(-1.34904e-05 4.09461e-05 0)
(-1.38857e-05 4.27125e-05 0)
(-1.42323e-05 4.20757e-05 0)
(-1.34734e-05 4.43893e-05 0)
(-1.41007e-05 4.41346e-05 0)
(-1.32373e-05 4.62708e-05 0)
(-1.33744e-05 4.72081e-05 0)
(-1.27622e-05 4.80535e-05 0)
(-1.26754e-05 4.89761e-05 0)
(-1.24858e-05 4.93113e-05 0)
(-1.22339e-05 4.96109e-05 0)
(-1.20344e-05 5.07216e-05 0)
(-1.17859e-05 5.14471e-05 0)
(-1.14436e-05 5.15593e-05 0)
(-1.10675e-05 5.18591e-05 0)
(-1.08026e-05 5.22279e-05 0)
(-1.05326e-05 5.30554e-05 0)
(-1.02544e-05 5.34226e-05 0)
(-9.98905e-06 5.39293e-05 0)
(-9.79242e-06 5.4257e-05 0)
(-9.57316e-06 5.45407e-05 0)
(-9.38104e-06 5.49452e-05 0)
(-9.22127e-06 5.51928e-05 0)
(-9.02718e-06 5.5469e-05 0)
(-8.85595e-06 5.58606e-05 0)
(-8.68292e-06 5.62878e-05 0)
(-8.51945e-06 5.65054e-05 0)
(-8.36042e-06 5.67781e-05 0)
(-8.21502e-06 5.70551e-05 0)
(1.11101e-06 1.26413e-06 0)
(3.23241e-06 -7.60883e-07 0)
(-3.66417e-06 -1.11002e-06 0)
(3.24981e-07 2.67976e-06 0)
(-5.15291e-07 -1.47579e-06 0)
(-4.35651e-06 -2.65828e-06 0)
(3.00711e-06 3.40674e-07 0)
(-3.12112e-06 -5.48409e-07 0)
(-8.60482e-07 1.96268e-06 0)
(-2.16596e-06 2.05708e-06 0)
(-4.87335e-06 1.14712e-07 0)
(-4.2458e-06 9.44669e-07 0)
(-5.71263e-06 1.66759e-08 0)
(-4.12633e-06 -9.90355e-07 0)
(-5.4761e-06 3.88724e-06 0)
(-5.59467e-06 3.71822e-06 0)
(-7.91562e-06 4.12885e-06 0)
(-7.68229e-06 5.32002e-06 0)
(-8.13476e-06 6.98832e-06 0)
(-9.32248e-06 9.96637e-06 0)
(-9.49688e-06 9.66098e-06 0)
(-1.08555e-05 1.07172e-05 0)
(-1.21819e-05 1.18837e-05 0)
(-1.19309e-05 1.44259e-05 0)
(-1.38469e-05 1.59768e-05 0)
(-1.60861e-05 1.69023e-05 0)
(-1.55066e-05 1.77269e-05 0)
(-1.61449e-05 1.90123e-05 0)
(-1.55272e-05 2.286e-05 0)
(-1.62409e-05 2.44788e-05 0)
(-1.65406e-05 2.48056e-05 0)
(-1.78618e-05 2.85731e-05 0)
(-1.78739e-05 2.83602e-05 0)
(-1.83255e-05 3.00299e-05 0)
(-1.82881e-05 3.10254e-05 0)
(-1.85145e-05 3.4735e-05 0)
(-1.75051e-05 3.54999e-05 0)
(-1.81639e-05 3.63148e-05 0)
(-1.84074e-05 3.87307e-05 0)
(-1.80243e-05 3.83023e-05 0)
(-1.80207e-05 4.06181e-05 0)
(-1.76346e-05 4.02332e-05 0)
(-1.7327e-05 4.39323e-05 0)
(-1.7176e-05 4.40035e-05 0)
(-1.66164e-05 4.50157e-05 0)
(-1.65801e-05 4.69877e-05 0)
(-1.6469e-05 4.78105e-05 0)
(-1.60567e-05 4.85551e-05 0)
(-1.60503e-05 4.8861e-05 0)
(-1.58727e-05 4.99652e-05 0)
(-1.56211e-05 5.03389e-05 0)
(-1.53026e-05 5.15137e-05 0)
(-1.51261e-05 5.23824e-05 0)
(-1.49356e-05 5.3611e-05 0)
(-1.47116e-05 5.40892e-05 0)
(-1.44223e-05 5.42652e-05 0)
(-1.40894e-05 5.49439e-05 0)
(-1.38307e-05 5.56657e-05 0)
(-1.3535e-05 5.61077e-05 0)
(-1.3296e-05 5.62495e-05 0)
(-1.30142e-05 5.67158e-05 0)
(-1.27338e-05 5.67943e-05 0)
(-1.24397e-05 5.71766e-05 0)
(-1.21676e-05 5.7644e-05 0)
(-1.18845e-05 5.78114e-05 0)
(-1.16397e-05 5.81094e-05 0)
(-1.14003e-05 5.83759e-05 0)
(-1.11727e-05 5.85853e-05 0)
(-1.09531e-05 5.87907e-05 0)
(9.38579e-08 -7.85153e-07 0)
(1.58238e-08 -2.21191e-06 0)
(2.96236e-07 -2.18438e-07 0)
(-4.40969e-07 -1.55815e-06 0)
(-1.03283e-06 -2.47898e-06 0)
(-1.72017e-06 2.21064e-06 0)
(-3.26466e-07 -1.96564e-06 0)
(-1.6499e-06 -6.40924e-08 0)
(3.97007e-07 2.72336e-07 0)
(-2.30749e-06 -5.62419e-06 0)
(-2.47283e-06 3.88864e-07 0)
(-9.66893e-07 2.80041e-06 0)
(-5.61637e-06 5.6066e-07 0)
(-6.32188e-06 2.79268e-06 0)
(-5.43031e-06 3.146e-06 0)
(-6.46718e-06 -1.01831e-06 0)
(-6.78652e-06 3.05941e-06 0)
(-8.521e-06 6.25715e-06 0)
(-8.91837e-06 5.37723e-06 0)
(-1.19493e-05 5.66889e-06 0)
(-1.39831e-05 7.32186e-06 0)
(-1.49229e-05 9.85472e-06 0)
(-1.68228e-05 1.03122e-05 0)
(-1.5438e-05 1.21423e-05 0)
(-1.59593e-05 9.24465e-06 0)
(-1.54575e-05 1.47325e-05 0)
(-1.76054e-05 1.96474e-05 0)
(-1.63104e-05 1.9676e-05 0)
(-1.8262e-05 2.2087e-05 0)
(-1.97459e-05 2.17161e-05 0)
(-2.04587e-05 2.36348e-05 0)
(-2.04258e-05 2.47165e-05 0)
(-2.07532e-05 2.69878e-05 0)
(-2.14137e-05 2.88533e-05 0)
(-2.07924e-05 3.05624e-05 0)
(-2.10962e-05 3.28968e-05 0)
(-2.17529e-05 3.48425e-05 0)
(-2.13115e-05 3.46318e-05 0)
(-2.11134e-05 3.77193e-05 0)
(-2.1234e-05 3.8276e-05 0)
(-2.10155e-05 3.98339e-05 0)
(-2.09923e-05 4.2095e-05 0)
(-2.05009e-05 4.11956e-05 0)
(-2.05813e-05 4.42496e-05 0)
(-2.01576e-05 4.40146e-05 0)
(-1.98697e-05 4.47708e-05 0)
(-1.95844e-05 4.71202e-05 0)
(-1.95489e-05 4.75043e-05 0)
(-1.92016e-05 4.75919e-05 0)
(-1.87946e-05 4.89686e-05 0)
(-1.84565e-05 4.98562e-05 0)
(-1.8008e-05 5.07999e-05 0)
(-1.73979e-05 5.1157e-05 0)
(-1.69404e-05 5.15187e-05 0)
(-1.65591e-05 5.23222e-05 0)
(-1.60878e-05 5.32429e-05 0)
(-1.57428e-05 5.39314e-05 0)
(-1.54318e-05 5.42232e-05 0)
(-1.51816e-05 5.47269e-05 0)
(-1.4887e-05 5.5114e-05 0)
(-1.46245e-05 5.56225e-05 0)
(-1.4342e-05 5.6149e-05 0)
(-1.40527e-05 5.64731e-05 0)
(-1.38169e-05 5.68837e-05 0)
(-1.35679e-05 5.72579e-05 0)
(-1.33203e-05 5.75483e-05 0)
(-1.30901e-05 5.78461e-05 0)
(-1.28595e-05 5.81542e-05 0)
(-1.26499e-05 5.84041e-05 0)
(-3.03282e-06 1.25701e-06 0)
(-1.82462e-06 -1.55554e-06 0)
(-3.70972e-06 -1.28833e-06 0)
(1.2825e-06 2.30662e-06 0)
(1.89701e-06 -3.62419e-06 0)
(-1.54849e-06 -1.7257e-06 0)
(-1.26277e-06 -9.95225e-07 0)
(-2.04658e-06 7.70282e-08 0)
(-2.45889e-06 1.22251e-06 0)
(6.29807e-08 -1.41165e-06 0)
(-4.71605e-06 9.76366e-07 0)
(-4.772e-06 -1.98982e-06 0)
(-6.82395e-06 -4.67952e-06 0)
(-7.27488e-06 -1.47866e-06 0)
(-7.43372e-06 2.88921e-06 0)
(-9.10712e-06 5.95889e-07 0)
(-1.013e-05 1.63984e-06 0)
(-1.00228e-05 2.37781e-06 0)
(-1.26334e-05 2.92412e-06 0)
(-1.16183e-05 3.48277e-06 0)
(-1.45672e-05 5.30727e-06 0)
(-1.30806e-05 5.55654e-06 0)
(-1.3895e-05 9.04229e-06 0)
(-1.71369e-05 1.2627e-05 0)
(-2.04354e-05 1.28328e-05 0)
(-1.79727e-05 1.24805e-05 0)
(-1.97147e-05 1.42883e-05 0)
(-2.05148e-05 1.59143e-05 0)
(-2.1028e-05 1.50472e-05 0)
(-2.20654e-05 1.88903e-05 0)
(-2.08095e-05 2.09244e-05 0)
(-2.34156e-05 2.46702e-05 0)
(-2.38197e-05 2.32103e-05 0)
(-2.47117e-05 2.66924e-05 0)
(-2.42646e-05 2.83255e-05 0)
(-2.50335e-05 2.90645e-05 0)
(-2.52473e-05 3.14364e-05 0)
(-2.48323e-05 3.36798e-05 0)
(-2.45598e-05 3.4629e-05 0)
(-2.48865e-05 3.46313e-05 0)
(-2.39225e-05 3.70569e-05 0)
(-2.47782e-05 3.75311e-05 0)
(-2.34895e-05 4.0698e-05 0)
(-2.39545e-05 4.03321e-05 0)
(-2.33748e-05 4.25965e-05 0)
(-2.31864e-05 4.38804e-05 0)
(-2.28121e-05 4.41175e-05 0)
(-2.2566e-05 4.49886e-05 0)
(-2.21327e-05 4.66158e-05 0)
(-2.15525e-05 4.7606e-05 0)
(-2.12163e-05 4.79896e-05 0)
(-2.09958e-05 5.02517e-05 0)
(-2.06189e-05 5.09645e-05 0)
(-2.03663e-05 5.1352e-05 0)
(-1.99584e-05 5.20474e-05 0)
(-1.97435e-05 5.23203e-05 0)
(-1.94293e-05 5.25381e-05 0)
(-1.91156e-05 5.31435e-05 0)
(-1.86958e-05 5.37492e-05 0)
(-1.83657e-05 5.41814e-05 0)
(-1.79634e-05 5.46118e-05 0)
(-1.75809e-05 5.50131e-05 0)
(-1.72e-05 5.52141e-05 0)
(-1.68394e-05 5.55956e-05 0)
(-1.64782e-05 5.60125e-05 0)
(-1.6145e-05 5.62919e-05 0)
(-1.58097e-05 5.65917e-05 0)
(-1.55045e-05 5.68313e-05 0)
(-1.52007e-05 5.70864e-05 0)
(-1.5509e-06 4.78355e-07 0)
(7.0403e-06 -3.09883e-06 0)
(-6.04024e-07 1.04176e-06 0)
(2.80071e-06 1.76491e-06 0)
(1.03702e-06 -5.29427e-06 0)
(8.26442e-08 7.40016e-07 0)
(1.50464e-06 -3.48046e-06 0)
(-1.26066e-06 -1.06745e-06 0)
(-2.69908e-06 1.48139e-06 0)
(-2.41032e-06 -7.62906e-06 0)
(-4.53272e-06 -2.85436e-06 0)
(-3.57228e-06 3.89147e-07 0)
(-5.12149e-06 -2.45438e-06 0)
(-7.40321e-06 1.13498e-06 0)
(-6.26314e-06 1.14992e-06 0)
(-8.34034e-06 -5.0708e-06 0)
(-9.01843e-06 1.16478e-06 0)
(-1.09848e-05 2.20663e-06 0)
(-1.26678e-05 1.79421e-06 0)
(-1.54823e-05 1.06983e-06 0)
(-1.60047e-05 3.48314e-06 0)
(-1.74492e-05 8.28978e-06 0)
(-1.83142e-05 3.81853e-06 0)
(-1.85174e-05 2.4045e-06 0)
(-1.92047e-05 6.12687e-06 0)
(-2.30242e-05 1.22914e-05 0)
(-2.21274e-05 1.23454e-05 0)
(-2.4064e-05 1.44349e-05 0)
(-2.41142e-05 1.54765e-05 0)
(-2.47251e-05 1.82395e-05 0)
(-2.5816e-05 1.75525e-05 0)
(-2.56909e-05 1.63483e-05 0)
(-2.59412e-05 2.09113e-05 0)
(-2.496e-05 2.36011e-05 0)
(-2.70463e-05 2.51674e-05 0)
(-2.6279e-05 2.56297e-05 0)
(-2.78899e-05 2.97726e-05 0)
(-2.73031e-05 3.07108e-05 0)
(-2.85196e-05 3.15092e-05 0)
(-2.78806e-05 3.42124e-05 0)
(-2.76844e-05 3.38289e-05 0)
(-2.71048e-05 3.6965e-05 0)
(-2.74877e-05 3.68939e-05 0)
(-2.68928e-05 3.81614e-05 0)
(-2.64264e-05 3.99522e-05 0)
(-2.64539e-05 3.98635e-05 0)
(-2.58768e-05 4.23893e-05 0)
(-2.55536e-05 4.27507e-05 0)
(-2.49909e-05 4.41742e-05 0)
(-2.48053e-05 4.52345e-05 0)
(-2.41138e-05 4.50932e-05 0)
(-2.36657e-05 4.64814e-05 0)
(-2.32807e-05 4.68996e-05 0)
(-2.28984e-05 4.76273e-05 0)
(-2.23261e-05 4.83402e-05 0)
(-2.18212e-05 4.88515e-05 0)
(-2.12757e-05 4.98582e-05 0)
(-2.07764e-05 5.0548e-05 0)
(-2.04024e-05 5.09449e-05 0)
(-2.00569e-05 5.13905e-05 0)
(-1.97057e-05 5.21805e-05 0)
(-1.93542e-05 5.26345e-05 0)
(-1.90428e-05 5.3012e-05 0)
(-1.86724e-05 5.34977e-05 0)
(-1.83504e-05 5.39315e-05 0)
(-1.80105e-05 5.42885e-05 0)
(-1.77013e-05 5.46147e-05 0)
(-1.73813e-05 5.49548e-05 0)
(-1.70851e-05 5.52486e-05 0)
(2.96616e-06 5.07439e-06 0)
(-1.959e-06 -2.02285e-06 0)
(-7.1492e-07 -3.43194e-06 0)
(-2.25984e-06 3.98212e-06 0)
(1.0574e-06 -6.1563e-06 0)
(-3.76916e-06 -1.30686e-06 0)
(-3.51201e-07 -2.4236e-06 0)
(9.59182e-07 -2.51468e-06 0)
(-1.46732e-06 4.94515e-07 0)
(-2.60617e-06 -3.51113e-06 0)
(-2.7312e-06 -4.24024e-07 0)
(-2.83443e-06 -2.80185e-06 0)
(-5.56763e-06 -8.30418e-06 0)
(-6.76651e-06 -3.21527e-06 0)
(-8.00375e-06 8.57532e-07 0)
(-9.47672e-06 -3.52601e-06 0)
(-8.32427e-06 -1.45948e-06 0)
(-1.10549e-05 -2.66645e-06 0)
(-1.2977e-05 -2.42652e-06 0)
(-1.22472e-05 -1.26262e-06 0)
(-1.41018e-05 1.0885e-06 0)
(-1.66276e-05 5.11497e-07 0)
(-1.87048e-05 4.424e-06 0)
(-1.94124e-05 7.88378e-06 0)
(-2.11576e-05 3.82778e-06 0)
(-2.15267e-05 6.30462e-06 0)
(-2.2755e-05 9.04982e-06 0)
(-2.4735e-05 9.16415e-06 0)
(-2.45975e-05 9.84229e-06 0)
(-2.70114e-05 1.21549e-05 0)
(-2.70329e-05 1.48691e-05 0)
(-2.80674e-05 1.85325e-05 0)
(-2.9469e-05 1.90389e-05 0)
(-2.97112e-05 1.90907e-05 0)
(-3.10694e-05 2.07133e-05 0)
(-3.05532e-05 2.18062e-05 0)
(-3.07114e-05 2.36419e-05 0)
(-3.13975e-05 2.6323e-05 0)
(-3.11332e-05 2.67752e-05 0)
(-3.15846e-05 2.98409e-05 0)
(-3.13999e-05 3.17801e-05 0)
(-3.13181e-05 3.10212e-05 0)
(-3.11204e-05 3.41099e-05 0)
(-3.04812e-05 3.5683e-05 0)
(-3.07352e-05 3.61259e-05 0)
(-2.98838e-05 3.78655e-05 0)
(-2.97026e-05 3.8917e-05 0)
(-2.9182e-05 4.00515e-05 0)
(-2.8253e-05 4.11752e-05 0)
(-2.79741e-05 4.25269e-05 0)
(-2.73858e-05 4.35518e-05 0)
(-2.69022e-05 4.46034e-05 0)
(-2.65865e-05 4.47978e-05 0)
(-2.61844e-05 4.59123e-05 0)
(-2.59755e-05 4.70463e-05 0)
(-2.55416e-05 4.73669e-05 0)
(-2.51498e-05 4.80175e-05 0)
(-2.47105e-05 4.83114e-05 0)
(-2.4232e-05 4.8695e-05 0)
(-2.3649e-05 4.93728e-05 0)
(-2.31242e-05 4.98739e-05 0)
(-2.26236e-05 5.01606e-05 0)
(-2.20883e-05 5.06624e-05 0)
(-2.15985e-05 5.11885e-05 0)
(-2.1131e-05 5.15754e-05 0)
(-2.07095e-05 5.19261e-05 0)
(-2.02839e-05 5.22619e-05 0)
(-1.98966e-05 5.25346e-05 0)
(-1.95153e-05 5.28052e-05 0)
(9.24425e-07 -6.73464e-07 0)
(1.48487e-06 -4.66887e-06 0)
(3.19486e-06 7.21795e-07 0)
(2.91563e-06 2.8979e-06 0)
(1.46482e-06 -6.74277e-06 0)
(2.01658e-06 -1.31598e-07 0)
(-1.75937e-06 -1.92406e-06 0)
(-1.52636e-06 -2.11509e-06 0)
(1.84026e-07 -9.20924e-07 0)
(-1.75912e-06 -8.6962e-06 0)
(-4.83215e-06 -3.14258e-06 0)
(-4.57912e-06 -2.29883e-06 0)
(-5.95351e-06 -5.88642e-06 0)
(-5.83266e-06 -1.67262e-06 0)
(-7.39521e-06 -2.03466e-06 0)
(-1.02321e-05 -6.75615e-06 0)
(-9.61912e-06 -1.7332e-06 0)
(-1.29975e-05 -3.78527e-06 0)
(-1.24808e-05 -1.60317e-06 0)
(-1.66113e-05 -2.40493e-06 0)
(-1.65222e-05 -3.14917e-06 0)
(-1.95896e-05 1.16013e-06 0)
(-1.82871e-05 -1.34357e-06 0)
(-2.27546e-05 -3.15188e-06 0)
(-2.38463e-05 4.06502e-07 0)
(-2.42416e-05 6.5621e-06 0)
(-2.57742e-05 4.10005e-06 0)
(-2.63338e-05 7.76179e-06 0)
(-2.84601e-05 7.91052e-06 0)
(-2.9459e-05 1.00093e-05 0)
(-3.03424e-05 1.14066e-05 0)
(-3.09628e-05 8.07101e-06 0)
(-3.18534e-05 1.36563e-05 0)
(-3.23457e-05 1.51558e-05 0)
(-3.30593e-05 1.77065e-05 0)
(-3.29766e-05 2.01411e-05 0)
(-3.31255e-05 2.15797e-05 0)
(-3.2876e-05 2.32298e-05 0)
(-3.33391e-05 2.40973e-05 0)
(-3.32587e-05 2.64557e-05 0)
(-3.43093e-05 2.7003e-05 0)
(-3.37335e-05 2.9873e-05 0)
(-3.34946e-05 3.11233e-05 0)
(-3.33278e-05 3.12994e-05 0)
(-3.30358e-05 3.36268e-05 0)
(-3.26156e-05 3.45913e-05 0)
(-3.2389e-05 3.59074e-05 0)
(-3.20808e-05 3.8596e-05 0)
(-3.16747e-05 3.89816e-05 0)
(-3.13257e-05 3.93547e-05 0)
(-3.07892e-05 4.01783e-05 0)
(-3.05284e-05 4.07251e-05 0)
(-2.9811e-05 4.14073e-05 0)