/*--------------------------------*- C++ -*----------------------------------*\
  =========                 |
  \\      /  F ield         | OpenFOAM: The Open Source CFD Toolbox
   \\    /   O peration     | Website:  https://openfoam.org
    \\  /    A nd           | Version:  10
     \\/     M anipulation  |
\*---------------------------------------------------------------------------*/
FoamFile
{
    format      ascii;
    class       volVectorField;
    location    "0";
    object      U_d10;
}
// * * * * * * * * * * * * * * * * * * * * * * * * * * * * * * * * * * * * * //

dimensions      [0 1 -1 0 0 0 0];

internalField   nonuniform List<vector> 
66268
(
(-4.61559e-10 9.3293e-10 0)
(-1.23943e-09 -1.3093e-09 0)
(-2.67401e-10 -1.671e-09 0)
(-1.21524e-09 -1.31806e-09 0)
(-2.28943e-12 -2.79914e-09 0)
(-1.28402e-09 -2.79714e-09 0)
(5.24563e-10 -4.87392e-09 0)
(-5.36647e-10 -3.24411e-09 0)
(9.98508e-10 -4.49787e-09 0)
(-6.68909e-10 -5.48163e-09 0)
(5.9841e-10 -5.29036e-09 0)
(-4.71195e-10 -6.7085e-09 0)
(4.41206e-10 -6.12542e-09 0)
(-1.7611e-10 -7.44671e-09 0)
(1.33876e-10 -8.05771e-09 0)
(-3.53244e-10 -8.23318e-09 0)
(1.94207e-10 -9.21832e-09 0)
(-7.35092e-11 -8.42271e-09 0)
(3.0392e-11 -9.93322e-09 0)
(2.08337e-10 -8.41957e-09 0)
(3.37115e-11 -9.12099e-09 0)
(8.14936e-11 -8.4066e-09 0)
(-3.40444e-10 -9.3519e-09 0)
(-2.30284e-10 -8.83259e-09 0)
(-5.75918e-10 -9.37167e-09 0)
(-5.02619e-10 -9.17661e-09 0)
(-7.78097e-10 -1.0133e-08 0)
(-4.53846e-10 -1.02291e-08 0)
(-8.03326e-10 -1.11497e-08 0)
(-4.55599e-10 -1.07595e-08 0)
(-8.79804e-10 -1.16402e-08 0)
(-4.99179e-10 -1.10113e-08 0)
(-9.92324e-10 -1.21222e-08 0)
(-5.15204e-10 -1.12524e-08 0)
(-9.87329e-10 -1.23509e-08 0)
(-4.026e-10 -1.14811e-08 0)
(-8.23164e-10 -1.24788e-08 0)
(-4.06464e-10 -1.17831e-08 0)
(-7.67853e-10 -1.28376e-08 0)
(-4.65391e-10 -1.20172e-08 0)
(-8.51807e-10 -1.3291e-08 0)
(-5.07117e-10 -1.23715e-08 0)
(-8.60392e-10 -1.35724e-08 0)
(-5.12848e-10 -1.25916e-08 0)
(-8.59007e-10 -1.37281e-08 0)
(-4.35439e-10 -1.2983e-08 0)
(-6.54604e-10 -1.37715e-08 0)
(-1.57628e-10 -1.30854e-08 0)
(-1.82512e-10 -1.38198e-08 0)
(3.71036e-10 -1.32826e-08 0)
(4.5197e-10 -1.39549e-08 0)
(9.10537e-10 -1.3433e-08 0)
(8.89957e-10 -1.40743e-08 0)
(1.0688e-09 -1.35819e-08 0)
(8.2296e-10 -1.41065e-08 0)
(7.38545e-10 -1.3729e-08 0)
(3.20333e-10 -1.42426e-08 0)
(1.21046e-10 -1.40101e-08 0)
(-3.12061e-10 -1.44599e-08 0)
(-4.36434e-10 -1.42759e-08 0)
(-7.07046e-10 -1.4665e-08 0)
(-6.65884e-10 -1.45158e-08 0)
(-8.12557e-10 -1.48334e-08 0)
(-7.37441e-10 -1.4714e-08 0)
(-8.28902e-10 -1.49782e-08 0)
(-7.3545e-10 -1.48886e-08 0)
(-7.90463e-10 -1.50846e-08 0)
(-6.96826e-10 -1.49957e-08 0)
(-7.08946e-10 -1.51546e-08 0)
(1.37591e-09 -4.18548e-09 0)
(3.54172e-09 -7.54481e-09 0)
(1.04028e-09 -1.34895e-08 0)
(3.88044e-09 -1.84039e-08 0)
(1.78165e-09 -2.37244e-08 0)
(4.69399e-09 -2.72929e-08 0)
(9.35485e-10 -3.25127e-08 0)
(4.5562e-09 -3.52532e-08 0)
(4.16461e-10 -4.09508e-08 0)
(4.7243e-09 -4.26711e-08 0)
(1.17827e-09 -4.69084e-08 0)
(3.73046e-09 -4.85792e-08 0)
(2.63614e-10 -5.35637e-08 0)
(3.5644e-09 -5.42767e-08 0)
(1.08099e-09 -5.7003e-08 0)
(3.51314e-09 -5.89271e-08 0)
(1.65935e-09 -6.08896e-08 0)
(2.05858e-09 -6.35574e-08 0)
(1.73729e-09 -6.5379e-08 0)
(8.1869e-10 -6.83197e-08 0)
(1.49345e-09 -7.03327e-08 0)
(7.34015e-10 -7.17455e-08 0)
(2.01849e-09 -7.4662e-08 0)
(2.01479e-09 -7.50551e-08 0)
(2.49114e-09 -7.6646e-08 0)
(2.30874e-09 -7.72953e-08 0)
(2.67513e-09 -7.91063e-08 0)
(1.96437e-09 -7.82681e-08 0)
(2.44798e-09 -8.07943e-08 0)
(1.68524e-09 -8.01915e-08 0)
(1.82507e-09 -8.28421e-08 0)
(1.35267e-09 -8.29005e-08 0)
(1.64977e-09 -8.40742e-08 0)
(1.24862e-09 -8.45126e-08 0)
(1.8211e-09 -8.57624e-08 0)
(1.36415e-09 -8.64362e-08 0)
(1.82913e-09 -8.7019e-08 0)
(1.62677e-09 -8.78545e-08 0)
(1.67684e-09 -8.81055e-08 0)
(1.58854e-09 -8.90336e-08 0)
(1.65025e-09 -8.91401e-08 0)
(1.49131e-09 -9.04479e-08 0)
(1.73205e-09 -8.99989e-08 0)
(1.41909e-09 -9.12696e-08 0)
(1.77824e-09 -9.07993e-08 0)
(1.38026e-09 -9.19634e-08 0)
(1.70789e-09 -9.19627e-08 0)
(1.11535e-09 -9.29444e-08 0)
(1.18505e-09 -9.27199e-08 0)
(5.45945e-10 -9.36963e-08 0)
(5.47633e-10 -9.35779e-08 0)
(-6.09806e-12 -9.44823e-08 0)
(2.22579e-10 -9.45389e-08 0)
(-7.49846e-11 -9.51323e-08 0)
(4.69657e-10 -9.5149e-08 0)
(4.80816e-10 -9.57285e-08 0)
(1.16863e-09 -9.55744e-08 0)
(1.36702e-09 -9.59679e-08 0)
(1.98455e-09 -9.56855e-08 0)
(2.16405e-09 -9.60502e-08 0)
(2.40403e-09 -9.59308e-08 0)
(2.22527e-09 -9.62697e-08 0)
(2.3379e-09 -9.61699e-08 0)
(2.13575e-09 -9.6457e-08 0)
(2.19288e-09 -9.64039e-08 0)
(1.97253e-09 -9.661e-08 0)
(1.99781e-09 -9.65629e-08 0)
(1.78975e-09 -9.67836e-08 0)
(1.80136e-09 -9.67525e-08 0)
(1.12739e-08 -4.29425e-09 0)
(1.01284e-08 -2.0905e-08 0)
(1.11664e-08 -3.10602e-08 0)
(9.36849e-09 -4.31941e-08 0)
(8.79207e-09 -5.43359e-08 0)
(8.72931e-09 -6.57685e-08 0)
(9.31586e-09 -7.63834e-08 0)
(7.66052e-09 -8.30257e-08 0)
(8.3801e-09 -9.38596e-08 0)
(8.08683e-09 -1.01879e-07 0)
(7.36866e-09 -1.09666e-07 0)
(8.41906e-09 -1.181e-07 0)
(7.22379e-09 -1.23088e-07 0)
(8.69228e-09 -1.30703e-07 0)
(5.91082e-09 -1.35819e-07 0)
(7.04537e-09 -1.41918e-07 0)
(5.54464e-09 -1.48134e-07 0)
(5.97834e-09 -1.5113e-07 0)
(4.94513e-09 -1.57029e-07 0)
(5.68314e-09 -1.59433e-07 0)
(5.89294e-09 -1.63176e-07 0)
(5.43872e-09 -1.66607e-07 0)
(5.84372e-09 -1.69051e-07 0)
(5.46606e-09 -1.73184e-07 0)
(5.6217e-09 -1.75808e-07 0)
(4.63782e-09 -1.78692e-07 0)
(5.53475e-09 -1.82215e-07 0)
(4.75512e-09 -1.85091e-07 0)
(5.0606e-09 -1.8823e-07 0)
(5.38863e-09 -1.90379e-07 0)
(4.90683e-09 -1.92968e-07 0)
(6.16773e-09 -1.94154e-07 0)
(5.06224e-09 -1.97043e-07 0)
(6.06644e-09 -1.97356e-07 0)
(5.1601e-09 -1.99953e-07 0)
(5.95257e-09 -2.01403e-07 0)
(5.09393e-09 -2.02313e-07 0)
(5.88893e-09 -2.05044e-07 0)
(4.97576e-09 -2.05569e-07 0)
(5.79644e-09 -2.06554e-07 0)
(4.71028e-09 -2.08611e-07 0)
(5.54436e-09 -2.08586e-07 0)
(4.53619e-09 -2.1128e-07 0)
(5.14665e-09 -2.11002e-07 0)
(4.2828e-09 -2.13353e-07 0)
(4.78794e-09 -2.13292e-07 0)
(4.22631e-09 -2.15177e-07 0)
(4.76486e-09 -2.15725e-07 0)
(4.32441e-09 -2.16426e-07 0)
(4.8547e-09 -2.17062e-07 0)
(4.51111e-09 -2.18104e-07 0)
(4.97366e-09 -2.18234e-07 0)
(4.65785e-09 -2.19624e-07 0)
(4.89518e-09 -2.19351e-07 0)
(4.38538e-09 -2.2046e-07 0)
(4.41337e-09 -2.20568e-07 0)
(3.79752e-09 -2.21549e-07 0)
(3.70003e-09 -2.21694e-07 0)
(3.01576e-09 -2.22375e-07 0)
(2.97636e-09 -2.22569e-07 0)
(2.56655e-09 -2.23233e-07 0)
(2.78121e-09 -2.23382e-07 0)
(2.45987e-09 -2.23922e-07 0)
(2.60052e-09 -2.24033e-07 0)
(2.32792e-09 -2.24509e-07 0)
(2.49027e-09 -2.24634e-07 0)
(2.27831e-09 -2.25059e-07 0)
(2.4368e-09 -2.25151e-07 0)
(2.3292e-09 -2.25462e-07 0)
(2.27841e-08 -1.2926e-08 0)
(2.34846e-08 -3.47729e-08 0)
(2.34996e-08 -5.63188e-08 0)
(2.39469e-08 -7.93113e-08 0)
(2.47419e-08 -9.92193e-08 0)
(2.34401e-08 -1.14167e-07 0)
(2.29444e-08 -1.37527e-07 0)
(2.46642e-08 -1.49719e-07 0)
(2.01017e-08 -1.68941e-07 0)
(2.30308e-08 -1.81024e-07 0)
(2.01134e-08 -1.95743e-07 0)
(2.08593e-08 -2.07844e-07 0)
(1.68466e-08 -2.21523e-07 0)
(2.01368e-08 -2.33028e-07 0)
(1.70049e-08 -2.43306e-07 0)
(1.88625e-08 -2.51345e-07 0)
(1.81207e-08 -2.615e-07 0)
(1.80037e-08 -2.6919e-07 0)
(1.67966e-08 -2.78361e-07 0)
(1.58654e-08 -2.8437e-07 0)
(1.4675e-08 -2.94528e-07 0)
(1.46052e-08 -2.98942e-07 0)
(1.41818e-08 -3.07827e-07 0)
(1.42415e-08 -3.11137e-07 0)
(1.37174e-08 -3.19383e-07 0)
(1.36209e-08 -3.21272e-07 0)
(1.29354e-08 -3.28057e-07 0)
(1.28398e-08 -3.30495e-07 0)
(1.25355e-08 -3.35285e-07 0)
(1.20811e-08 -3.37994e-07 0)
(1.12949e-08 -3.42931e-07 0)
(1.09759e-08 -3.45296e-07 0)
(1.06985e-08 -3.51207e-07 0)
(1.05046e-08 -3.525e-07 0)
(1.03936e-08 -3.57484e-07 0)
(1.0147e-08 -3.59327e-07 0)
(1.03151e-08 -3.6225e-07 0)
(9.76382e-09 -3.65051e-07 0)
(1.01957e-08 -3.66675e-07 0)
(9.1906e-09 -3.69856e-07 0)
(9.68035e-09 -3.71324e-07 0)
(8.74802e-09 -3.73918e-07 0)
(9.22336e-09 -3.75554e-07 0)
(8.54282e-09 -3.77347e-07 0)
(9.02489e-09 -3.78731e-07 0)
(8.39333e-09 -3.79888e-07 0)
(8.63876e-09 -3.81402e-07 0)
(7.92345e-09 -3.83318e-07 0)
(8.17799e-09 -3.84452e-07 0)
(7.27234e-09 -3.86462e-07 0)
(7.56331e-09 -3.87026e-07 0)
(6.69363e-09 -3.88327e-07 0)
(7.11261e-09 -3.88888e-07 0)
(6.5935e-09 -3.90256e-07 0)
(7.16653e-09 -3.90731e-07 0)
(6.93023e-09 -3.91661e-07 0)
(7.56036e-09 -3.9201e-07 0)
(7.47693e-09 -3.92891e-07 0)
(8.10656e-09 -3.93224e-07 0)
(8.15254e-09 -3.94068e-07 0)
(8.3377e-09 -3.94427e-07 0)
(7.79378e-09 -3.95242e-07 0)
(7.88192e-09 -3.95587e-07 0)
(7.39215e-09 -3.96262e-07 0)
(7.40338e-09 -3.9653e-07 0)
(6.91101e-09 -3.97073e-07 0)
(6.90498e-09 -3.97285e-07 0)
(6.47121e-09 -3.97764e-07 0)
(6.45611e-09 -3.97977e-07 0)
(4.76353e-08 -1.50957e-08 0)
(4.65573e-08 -5.47033e-08 0)
(4.72099e-08 -8.48844e-08 0)
(4.45707e-08 -1.18106e-07 0)
(4.53125e-08 -1.49444e-07 0)
(4.41603e-08 -1.79415e-07 0)
(4.34111e-08 -2.05461e-07 0)
(4.22304e-08 -2.31085e-07 0)
(3.95144e-08 -2.57089e-07 0)
(4.32606e-08 -2.78435e-07 0)
(3.55256e-08 -3.00704e-07 0)
(3.98087e-08 -3.23562e-07 0)
(3.42008e-08 -3.37213e-07 0)
(3.65299e-08 -3.57204e-07 0)
(3.30555e-08 -3.7241e-07 0)
(3.34614e-08 -3.87106e-07 0)
(3.07683e-08 -4.02179e-07 0)
(2.92852e-08 -4.15851e-07 0)
(2.83199e-08 -4.28324e-07 0)
(2.74084e-08 -4.40035e-07 0)
(2.72764e-08 -4.48731e-07 0)
(2.64968e-08 -4.594e-07 0)
(2.66081e-08 -4.6731e-07 0)
(2.5605e-08 -4.77384e-07 0)
(2.56603e-08 -4.84511e-07 0)
(2.47152e-08 -4.9298e-07 0)
(2.49555e-08 -5.00006e-07 0)
(2.40453e-08 -5.07629e-07 0)
(2.38587e-08 -5.14529e-07 0)
(2.34004e-08 -5.21891e-07 0)
(2.31622e-08 -5.27056e-07 0)
(2.32554e-08 -5.31839e-07 0)
(2.20474e-08 -5.36981e-07 0)
(2.26141e-08 -5.4111e-07 0)
(2.10872e-08 -5.45521e-07 0)
(2.22669e-08 -5.49625e-07 0)
(2.0888e-08 -5.53087e-07 0)
(2.16076e-08 -5.57732e-07 0)
(2.09829e-08 -5.60839e-07 0)
(2.10792e-08 -5.64383e-07 0)
(2.04868e-08 -5.67146e-07 0)
(2.05818e-08 -5.69996e-07 0)
(2.00036e-08 -5.72974e-07 0)
(1.99659e-08 -5.75107e-07 0)
(1.91311e-08 -5.78138e-07 0)
(1.92047e-08 -5.80655e-07 0)
(1.81678e-08 -5.83355e-07 0)
(1.84776e-08 -5.84514e-07 0)
(1.76036e-08 -5.86626e-07 0)
(1.797e-08 -5.88001e-07 0)
(1.72745e-08 -5.90085e-07 0)
(1.76048e-08 -5.91602e-07 0)
(1.68692e-08 -5.93374e-07 0)
(1.69357e-08 -5.94758e-07 0)
(1.60063e-08 -5.96493e-07 0)
(1.5849e-08 -5.97789e-07 0)
(1.48077e-08 -5.99287e-07 0)
(1.45414e-08 -6.00114e-07 0)
(1.34925e-08 -6.01422e-07 0)
(1.33091e-08 -6.01996e-07 0)
(1.2617e-08 -6.03093e-07 0)
(1.27343e-08 -6.03711e-07 0)
(1.2038e-08 -6.04613e-07 0)
(1.20413e-08 -6.05089e-07 0)
(1.14555e-08 -6.05792e-07 0)
(1.15428e-08 -6.06255e-07 0)
(1.1078e-08 -6.06925e-07 0)
(1.11643e-08 -6.07332e-07 0)
(1.0855e-08 -6.07903e-07 0)
(7.92374e-08 -2.52311e-08 0)
(7.83843e-08 -7.46669e-08 0)
(7.77391e-08 -1.19904e-07 0)
(7.56459e-08 -1.66937e-07 0)
(7.56525e-08 -2.08617e-07 0)
(7.35816e-08 -2.44549e-07 0)
(7.07528e-08 -2.90173e-07 0)
(7.32412e-08 -3.20978e-07 0)
(6.54783e-08 -3.54983e-07 0)
(6.85368e-08 -3.8705e-07 0)
(6.30825e-08 -4.18046e-07 0)
(6.42157e-08 -4.42757e-07 0)
(5.91344e-08 -4.7264e-07 0)
(5.93346e-08 -4.95053e-07 0)
(5.54708e-08 -5.18698e-07 0)
(5.53373e-08 -5.37321e-07 0)
(5.38253e-08 -5.60315e-07 0)
(5.16365e-08 -5.75107e-07 0)
(5.08845e-08 -5.93968e-07 0)
(4.85153e-08 -6.0746e-07 0)
(4.7138e-08 -6.26002e-07 0)
(4.51507e-08 -6.36384e-07 0)
(4.42987e-08 -6.53496e-07 0)
(4.31489e-08 -6.61774e-07 0)
(4.26277e-08 -6.77147e-07 0)
(4.10109e-08 -6.83699e-07 0)
(3.99375e-08 -6.96938e-07 0)
(3.87173e-08 -7.03932e-07 0)
(3.7838e-08 -7.13633e-07 0)
(3.69076e-08 -7.19459e-07 0)
(3.63652e-08 -7.28455e-07 0)
(3.53147e-08 -7.3531e-07 0)
(3.48843e-08 -7.44605e-07 0)
(3.41018e-08 -7.49793e-07 0)
(3.40414e-08 -7.57006e-07 0)
(3.27989e-08 -7.60702e-07 0)
(3.28917e-08 -7.68512e-07 0)
(3.13429e-08 -7.70824e-07 0)
(3.14283e-08 -7.77529e-07 0)
(2.97818e-08 -7.8194e-07 0)
(3.0076e-08 -7.86057e-07 0)
(2.8429e-08 -7.90101e-07 0)
(2.86882e-08 -7.94276e-07 0)
(2.72962e-08 -7.9813e-07 0)
(2.75065e-08 -8.00925e-07 0)
(2.62209e-08 -8.04291e-07 0)
(2.642e-08 -8.06653e-07 0)
(2.52715e-08 -8.09506e-07 0)
(2.5096e-08 -8.12391e-07 0)
(2.38544e-08 -8.15044e-07 0)
(2.36095e-08 -8.16883e-07 0)
(2.2378e-08 -8.19004e-07 0)
(2.23673e-08 -8.20684e-07 0)
(2.13753e-08 -8.22773e-07 0)
(2.17303e-08 -8.24227e-07 0)
(2.10753e-08 -8.25852e-07 0)
(2.15631e-08 -8.27317e-07 0)
(2.10392e-08 -8.28764e-07 0)
(2.15614e-08 -8.29809e-07 0)
(2.14534e-08 -8.31268e-07 0)
(2.14951e-08 -8.32292e-07 0)
(2.05896e-08 -8.3354e-07 0)
(2.04942e-08 -8.34504e-07 0)
(1.96526e-08 -8.35578e-07 0)
(1.9438e-08 -8.3635e-07 0)
(1.85841e-08 -8.37306e-07 0)
(1.83801e-08 -8.37983e-07 0)
(1.76281e-08 -8.38779e-07 0)
(1.74409e-08 -8.39363e-07 0)
(1.17131e-07 -2.88875e-08 0)
(1.16678e-07 -9.80008e-08 0)
(1.16677e-07 -1.5413e-07 0)
(1.14031e-07 -2.13359e-07 0)
(1.14145e-07 -2.68203e-07 0)
(1.11494e-07 -3.22877e-07 0)
(1.10003e-07 -3.67637e-07 0)
(1.09585e-07 -4.17279e-07 0)
(1.02409e-07 -4.6243e-07 0)
(1.02007e-07 -5.00798e-07 0)
(9.42238e-08 -5.4087e-07 0)
(9.44589e-08 -5.79582e-07 0)
(8.78063e-08 -6.08746e-07 0)
(9.14572e-08 -6.43414e-07 0)
(8.55379e-08 -6.70827e-07 0)
(8.48425e-08 -6.97227e-07 0)
(8.04905e-08 -7.23942e-07 0)
(7.85042e-08 -7.485e-07 0)
(7.52896e-08 -7.6923e-07 0)
(7.27983e-08 -7.929e-07 0)
(7.0477e-08 -8.08818e-07 0)
(6.9109e-08 -8.28821e-07 0)
(6.69968e-08 -8.4275e-07 0)
(6.54723e-08 -8.59623e-07 0)
(6.29746e-08 -8.73154e-07 0)
(6.14803e-08 -8.8896e-07 0)
(6.03332e-08 -9.00045e-07 0)
(5.91567e-08 -9.13788e-07 0)
(5.8504e-08 -9.24289e-07 0)
(5.67096e-08 -9.36139e-07 0)
(5.54643e-08 -9.45044e-07 0)
(5.4037e-08 -9.55339e-07 0)
(5.26035e-08 -9.62594e-07 0)
(5.18695e-08 -9.70824e-07 0)
(5.07743e-08 -9.78337e-07 0)
(5.00704e-08 -9.86158e-07 0)
(4.8715e-08 -9.92236e-07 0)
(4.8676e-08 -1.00027e-06 0)
(4.68199e-08 -1.00551e-06 0)
(4.6896e-08 -1.01138e-06 0)
(4.52662e-08 -1.01585e-06 0)
(4.53032e-08 -1.0217e-06 0)
(4.37246e-08 -1.02543e-06 0)
(4.37771e-08 -1.03039e-06 0)
(4.22678e-08 -1.03432e-06 0)
(4.21166e-08 -1.03888e-06 0)
(4.06724e-08 -1.04179e-06 0)
(4.04189e-08 -1.04585e-06 0)
(3.91637e-08 -1.04881e-06 0)
(3.89938e-08 -1.05189e-06 0)
(3.7938e-08 -1.05497e-06 0)
(3.77304e-08 -1.05766e-06 0)
(3.65615e-08 -1.06053e-06 0)
(3.60964e-08 -1.06255e-06 0)
(3.46863e-08 -1.06488e-06 0)
(3.40155e-08 -1.06674e-06 0)
(3.24594e-08 -1.06874e-06 0)
(3.19325e-08 -1.07061e-06 0)
(3.05401e-08 -1.07226e-06 0)
(3.00557e-08 -1.07372e-06 0)
(2.89657e-08 -1.07529e-06 0)
(2.86967e-08 -1.07665e-06 0)
(2.75393e-08 -1.07802e-06 0)
(2.72484e-08 -1.0791e-06 0)
(2.62966e-08 -1.08029e-06 0)
(2.61724e-08 -1.08123e-06 0)
(2.54296e-08 -1.08224e-06 0)
(2.53394e-08 -1.08307e-06 0)
(2.47941e-08 -1.08391e-06 0)
(1.67288e-07 -3.84385e-08 0)
(1.63676e-07 -1.18944e-07 0)
(1.65293e-07 -1.90772e-07 0)
(1.5998e-07 -2.64496e-07 0)
(1.5993e-07 -3.31232e-07 0)
(1.54838e-07 -3.91354e-07 0)
(1.49692e-07 -4.58838e-07 0)
(1.48829e-07 -5.13535e-07 0)
(1.42709e-07 -5.68716e-07 0)
(1.43364e-07 -6.18433e-07 0)
(1.38013e-07 -6.67821e-07 0)
(1.36477e-07 -7.09082e-07 0)
(1.28569e-07 -7.51044e-07 0)
(1.24685e-07 -7.88349e-07 0)
(1.19305e-07 -8.28892e-07 0)
(1.16406e-07 -8.58904e-07 0)
(1.12304e-07 -8.94766e-07 0)
(1.09219e-07 -9.19158e-07 0)
(1.04744e-07 -9.4987e-07 0)
(1.01568e-07 -9.71974e-07 0)
(9.90718e-08 -9.98732e-07 0)
(9.49412e-08 -1.0167e-06 0)
(9.27211e-08 -1.04184e-06 0)
(9.05994e-08 -1.05701e-06 0)
(8.84792e-08 -1.08016e-06 0)
(8.65381e-08 -1.09069e-06 0)
(8.35923e-08 -1.11047e-06 0)
(8.14166e-08 -1.12088e-06 0)
(7.94494e-08 -1.13755e-06 0)
(7.75417e-08 -1.14804e-06 0)
(7.61089e-08 -1.16153e-06 0)
(7.46633e-08 -1.17168e-06 0)
(7.34755e-08 -1.18446e-06 0)
(7.21549e-08 -1.19216e-06 0)
(7.0538e-08 -1.20361e-06 0)
(6.91957e-08 -1.21044e-06 0)
(6.78633e-08 -1.2202e-06 0)
(6.60595e-08 -1.22618e-06 0)
(6.54356e-08 -1.23563e-06 0)
(6.35601e-08 -1.24116e-06 0)
(6.28019e-08 -1.24831e-06 0)
(6.10244e-08 -1.25382e-06 0)
(6.01403e-08 -1.26033e-06 0)
(5.85051e-08 -1.26505e-06 0)
(5.76152e-08 -1.27076e-06 0)
(5.61592e-08 -1.27475e-06 0)
(5.5164e-08 -1.27974e-06 0)
(5.34733e-08 -1.28305e-06 0)
(5.25639e-08 -1.28783e-06 0)
(5.07862e-08 -1.29089e-06 0)
(4.99692e-08 -1.29436e-06 0)
(4.81969e-08 -1.29761e-06 0)
(4.75764e-08 -1.3005e-06 0)
(4.61341e-08 -1.30318e-06 0)
(4.58096e-08 -1.3058e-06 0)
(4.4706e-08 -1.3084e-06 0)
(4.45219e-08 -1.31076e-06 0)
(4.34798e-08 -1.31308e-06 0)
(4.33544e-08 -1.31522e-06 0)
(4.27341e-08 -1.31714e-06 0)
(4.24678e-08 -1.31889e-06 0)
(4.11345e-08 -1.32055e-06 0)
(4.05232e-08 -1.32201e-06 0)
(3.91585e-08 -1.32349e-06 0)
(3.85242e-08 -1.32475e-06 0)
(3.72489e-08 -1.32595e-06 0)
(3.66686e-08 -1.3271e-06 0)
(3.55116e-08 -1.32819e-06 0)
(3.49573e-08 -1.32916e-06 0)
(2.1875e-07 -4.40221e-08 0)
(2.18846e-07 -1.4173e-07 0)
(2.16955e-07 -2.2473e-07 0)
(2.14567e-07 -3.11739e-07 0)
(2.11675e-07 -3.90454e-07 0)
(2.06674e-07 -4.71845e-07 0)
(2.01871e-07 -5.36532e-07 0)
(2.00076e-07 -6.07157e-07 0)
(1.93676e-07 -6.71514e-07 0)
(1.8956e-07 -7.28744e-07 0)
(1.80749e-07 -7.86928e-07 0)
(1.77799e-07 -8.44866e-07 0)
(1.693e-07 -8.90631e-07 0)
(1.67296e-07 -9.391e-07 0)
(1.61624e-07 -9.78657e-07 0)
(1.55596e-07 -1.01856e-06 0)
(1.5121e-07 -1.05506e-06 0)
(1.45245e-07 -1.09227e-06 0)
(1.41786e-07 -1.12222e-06 0)
(1.35761e-07 -1.1544e-06 0)
(1.31538e-07 -1.17977e-06 0)
(1.2786e-07 -1.20932e-06 0)
(1.24304e-07 -1.22807e-06 0)
(1.19519e-07 -1.25275e-06 0)
(1.15751e-07 -1.27163e-06 0)
(1.12505e-07 -1.29504e-06 0)
(1.10043e-07 -1.31151e-06 0)
(1.07977e-07 -1.32969e-06 0)
(1.05568e-07 -1.34436e-06 0)
(1.03031e-07 -1.36041e-06 0)
(1.00801e-07 -1.37215e-06 0)
(9.78388e-08 -1.38745e-06 0)
(9.53673e-08 -1.39708e-06 0)
(9.31594e-08 -1.41078e-06 0)
(9.13623e-08 -1.42028e-06 0)
(8.99072e-08 -1.43163e-06 0)
(8.78681e-08 -1.44065e-06 0)
(8.63502e-08 -1.45048e-06 0)
(8.4338e-08 -1.45754e-06 0)
(8.31763e-08 -1.4668e-06 0)
(8.10951e-08 -1.47256e-06 0)
(7.96716e-08 -1.48157e-06 0)
(7.82515e-08 -1.4862e-06 0)
(7.64418e-08 -1.49394e-06 0)
(7.49922e-08 -1.49806e-06 0)
(7.3494e-08 -1.5053e-06 0)
(7.1719e-08 -1.50985e-06 0)
(7.05404e-08 -1.5152e-06 0)
(6.86322e-08 -1.51917e-06 0)
(6.77177e-08 -1.52338e-06 0)
(6.59362e-08 -1.5273e-06 0)
(6.50885e-08 -1.53141e-06 0)
(6.31778e-08 -1.53444e-06 0)
(6.19371e-08 -1.53787e-06 0)
(5.97788e-08 -1.54071e-06 0)
(5.83299e-08 -1.5436e-06 0)
(5.61229e-08 -1.54619e-06 0)
(5.50675e-08 -1.54864e-06 0)
(5.34812e-08 -1.55097e-06 0)
(5.28152e-08 -1.55311e-06 0)
(5.1233e-08 -1.55504e-06 0)
(5.03954e-08 -1.55697e-06 0)
(4.89466e-08 -1.5587e-06 0)
(4.82302e-08 -1.56032e-06 0)
(4.69053e-08 -1.56188e-06 0)
(4.63485e-08 -1.5634e-06 0)
(4.5205e-08 -1.5647e-06 0)
(4.47929e-08 -1.56597e-06 0)
(4.41011e-08 -1.56712e-06 0)
(2.8136e-07 -5.05184e-08 0)
(2.77798e-07 -1.61218e-07 0)
(2.80211e-07 -2.58251e-07 0)
(2.72179e-07 -3.58129e-07 0)
(2.69254e-07 -4.49494e-07 0)
(2.67192e-07 -5.33409e-07 0)
(2.57912e-07 -6.2103e-07 0)
(2.57075e-07 -6.95186e-07 0)
(2.45269e-07 -7.71946e-07 0)
(2.42326e-07 -8.4045e-07 0)
(2.30942e-07 -9.06501e-07 0)
(2.27608e-07 -9.6428e-07 0)
(2.179e-07 -1.02057e-06 0)
(2.118e-07 -1.07006e-06 0)
(2.03475e-07 -1.1266e-06 0)
(1.97634e-07 -1.16795e-06 0)
(1.92171e-07 -1.21464e-06 0)
(1.85143e-07 -1.24916e-06 0)
(1.7838e-07 -1.29024e-06 0)
(1.71684e-07 -1.3226e-06 0)
(1.66168e-07 -1.35566e-06 0)
(1.6104e-07 -1.38049e-06 0)
(1.56528e-07 -1.41423e-06 0)
(1.52262e-07 -1.43617e-06 0)
(1.48652e-07 -1.46435e-06 0)
(1.44776e-07 -1.47954e-06 0)
(1.4024e-07 -1.5037e-06 0)
(1.36525e-07 -1.51857e-06 0)
(1.32212e-07 -1.54093e-06 0)
(1.29431e-07 -1.55456e-06 0)
(1.26146e-07 -1.57338e-06 0)
(1.23895e-07 -1.58646e-06 0)
(1.21069e-07 -1.60242e-06 0)
(1.18697e-07 -1.61201e-06 0)
(1.16297e-07 -1.62567e-06 0)
(1.13924e-07 -1.63542e-06 0)
(1.11096e-07 -1.64875e-06 0)
(1.0902e-07 -1.65644e-06 0)
(1.06673e-07 -1.66802e-06 0)
(1.04315e-07 -1.67525e-06 0)
(1.02352e-07 -1.68594e-06 0)
(1.00109e-07 -1.69059e-06 0)
(9.84055e-08 -1.70089e-06 0)
(9.61451e-08 -1.70648e-06 0)
(9.42102e-08 -1.71328e-06 0)
(9.20267e-08 -1.71918e-06 0)
(9.04552e-08 -1.72509e-06 0)
(8.80844e-08 -1.72983e-06 0)
(8.66317e-08 -1.73541e-06 0)
(8.43679e-08 -1.73916e-06 0)
(8.27018e-08 -1.74371e-06 0)
(8.03966e-08 -1.74809e-06 0)
(7.89352e-08 -1.75278e-06 0)
(7.67278e-08 -1.75606e-06 0)
(7.56478e-08 -1.75981e-06 0)
(7.38484e-08 -1.76257e-06 0)
(7.31031e-08 -1.76584e-06 0)
(7.16409e-08 -1.76845e-06 0)
(7.07548e-08 -1.77124e-06 0)
(6.95208e-08 -1.77347e-06 0)
(6.86274e-08 -1.77599e-06 0)
(6.6714e-08 -1.77785e-06 0)
(6.53831e-08 -1.78006e-06 0)
(6.34803e-08 -1.782e-06 0)
(6.22606e-08 -1.78365e-06 0)
(6.05076e-08 -1.78521e-06 0)
(5.94773e-08 -1.78675e-06 0)
(5.79625e-08 -1.78807e-06 0)
(5.70413e-08 -1.78937e-06 0)
(3.45059e-07 -5.72359e-08 0)
(3.42607e-07 -1.79533e-07 0)
(3.41319e-07 -2.87943e-07 0)
(3.35869e-07 -4.01871e-07 0)
(3.33158e-07 -4.97673e-07 0)
(3.25222e-07 -6.03995e-07 0)
(3.20299e-07 -6.88064e-07 0)
(3.14125e-07 -7.78637e-07 0)
(3.00193e-07 -8.61914e-07 0)
(2.98054e-07 -9.36443e-07 0)
(2.8496e-07 -1.01014e-06 0)
(2.79325e-07 -1.08171e-06 0)
(2.6885e-07 -1.14324e-06 0)
(2.62189e-07 -1.2048e-06 0)
(2.52983e-07 -1.25645e-06 0)
(2.4416e-07 -1.30647e-06 0)
(2.36105e-07 -1.35334e-06 0)
(2.27403e-07 -1.40256e-06 0)
(2.19897e-07 -1.44031e-06 0)
(2.13669e-07 -1.48098e-06 0)
(2.08346e-07 -1.51223e-06 0)
(2.00228e-07 -1.54944e-06 0)
(1.94221e-07 -1.57429e-06 0)
(1.86105e-07 -1.60463e-06 0)
(1.81036e-07 -1.628e-06 0)
(1.74925e-07 -1.65824e-06 0)
(1.71436e-07 -1.67884e-06 0)
(1.65202e-07 -1.70218e-06 0)
(1.62086e-07 -1.71899e-06 0)
(1.58141e-07 -1.73789e-06 0)
(1.54968e-07 -1.7522e-06 0)
(1.50467e-07 -1.77115e-06 0)
(1.47382e-07 -1.78349e-06 0)
(1.43751e-07 -1.80007e-06 0)
(1.40422e-07 -1.81125e-06 0)
(1.36902e-07 -1.82699e-06 0)
(1.34241e-07 -1.8367e-06 0)
(1.31388e-07 -1.84862e-06 0)
(1.28476e-07 -1.85764e-06 0)
(1.26008e-07 -1.86856e-06 0)
(1.23367e-07 -1.8755e-06 0)
(1.21109e-07 -1.88603e-06 0)
(1.18187e-07 -1.8919e-06 0)
(1.1612e-07 -1.9023e-06 0)
(1.13477e-07 -1.907e-06 0)
(1.11255e-07 -1.91487e-06 0)
(1.08863e-07 -1.92083e-06 0)
(1.06839e-07 -1.92728e-06 0)
(1.04301e-07 -1.93139e-06 0)
(1.02295e-07 -1.93789e-06 0)
(9.96783e-08 -1.94237e-06 0)
(9.76742e-08 -1.94751e-06 0)
(9.50859e-08 -1.95135e-06 0)
(9.29725e-08 -1.95544e-06 0)
(9.0383e-08 -1.95866e-06 0)
(8.82147e-08 -1.96258e-06 0)
(8.54734e-08 -1.96541e-06 0)
(8.36796e-08 -1.96855e-06 0)
(8.16529e-08 -1.97113e-06 0)
(8.05253e-08 -1.97397e-06 0)
(7.85759e-08 -1.97613e-06 0)
(7.70508e-08 -1.97874e-06 0)
(7.50152e-08 -1.98072e-06 0)
(7.37528e-08 -1.98277e-06 0)
(7.19874e-08 -1.98462e-06 0)
(7.09488e-08 -1.98652e-06 0)
(6.94575e-08 -1.98806e-06 0)
(6.8603e-08 -1.98966e-06 0)
(6.75714e-08 -1.991e-06 0)
(4.15767e-07 -6.15143e-08 0)
(4.1261e-07 -1.96947e-07 0)
(4.09932e-07 -3.15354e-07 0)
(4.04597e-07 -4.37408e-07 0)
(3.96211e-07 -5.48671e-07 0)
(3.91864e-07 -6.52777e-07 0)
(3.82432e-07 -7.57579e-07 0)
(3.75388e-07 -8.54162e-07 0)
(3.64274e-07 -9.43805e-07 0)
(3.54894e-07 -1.02639e-06 0)
(3.44787e-07 -1.11012e-06 0)
(3.3509e-07 -1.17951e-06 0)
(3.2336e-07 -1.24933e-06 0)
(3.13893e-07 -1.31068e-06 0)
(3.02656e-07 -1.37941e-06 0)
(2.93158e-07 -1.43036e-06 0)
(2.8417e-07 -1.48646e-06 0)
(2.73597e-07 -1.53051e-06 0)
(2.63619e-07 -1.57765e-06 0)
(2.54393e-07 -1.61534e-06 0)
(2.46284e-07 -1.65847e-06 0)
(2.36241e-07 -1.69036e-06 0)
(2.28224e-07 -1.72961e-06 0)
(2.2272e-07 -1.756e-06 0)
(2.1641e-07 -1.78825e-06 0)
(2.0868e-07 -1.80673e-06 0)
(2.03036e-07 -1.83577e-06 0)
(1.98127e-07 -1.85442e-06 0)
(1.92054e-07 -1.87703e-06 0)
(1.86933e-07 -1.89419e-06 0)
(1.80594e-07 -1.91702e-06 0)
(1.77866e-07 -1.93165e-06 0)
(1.73163e-07 -1.94972e-06 0)
(1.69942e-07 -1.96221e-06 0)
(1.65311e-07 -1.97857e-06 0)
(1.62715e-07 -1.98879e-06 0)
(1.58837e-07 -2.00356e-06 0)
(1.55815e-07 -2.01337e-06 0)
(1.5208e-07 -2.02649e-06 0)
(1.49252e-07 -2.03428e-06 0)
(1.4553e-07 -2.04633e-06 0)
(1.43313e-07 -2.05259e-06 0)
(1.39745e-07 -2.06423e-06 0)
(1.37413e-07 -2.06963e-06 0)
(1.3427e-07 -2.07893e-06 0)
(1.31414e-07 -2.08425e-06 0)
(1.2868e-07 -2.09138e-06 0)
(1.25705e-07 -2.09691e-06 0)
(1.23102e-07 -2.10384e-06 0)
(1.20001e-07 -2.10854e-06 0)
(1.17463e-07 -2.11405e-06 0)
(1.14672e-07 -2.11877e-06 0)
(1.12225e-07 -2.12422e-06 0)
(1.09623e-07 -2.12728e-06 0)
(1.07519e-07 -2.13176e-06 0)
(1.05171e-07 -2.13502e-06 0)
(1.03733e-07 -2.13882e-06 0)
(1.02041e-07 -2.14182e-06 0)
(1.0033e-07 -2.14545e-06 0)
(9.85326e-08 -2.14798e-06 0)
(9.70299e-08 -2.15101e-06 0)
(9.46373e-08 -2.15319e-06 0)
(9.26399e-08 -2.15553e-06 0)
(9.02284e-08 -2.1575e-06 0)
(8.83595e-08 -2.1597e-06 0)
(8.61465e-08 -2.16137e-06 0)
(8.45997e-08 -2.16325e-06 0)
(8.27439e-08 -2.16476e-06 0)
(8.14097e-08 -2.16635e-06 0)
(4.84624e-07 -6.7428e-08 0)
(4.7655e-07 -2.11063e-07 0)
(4.80766e-07 -3.3795e-07 0)
(4.70603e-07 -4.73637e-07 0)
(4.64864e-07 -5.85035e-07 0)
(4.58022e-07 -7.07886e-07 0)
(4.47007e-07 -8.09981e-07 0)
(4.39709e-07 -9.15953e-07 0)
(4.27699e-07 -1.01416e-06 0)
(4.16162e-07 -1.10169e-06 0)
(4.04806e-07 -1.18799e-06 0)
(3.92597e-07 -1.27291e-06 0)
(3.79107e-07 -1.3446e-06 0)
(3.67586e-07 -1.41749e-06 0)
(3.54285e-07 -1.47928e-06 0)
(3.42063e-07 -1.53719e-06 0)
(3.32093e-07 -1.59307e-06 0)
(3.18095e-07 -1.65147e-06 0)
(3.09589e-07 -1.69469e-06 0)
(2.96334e-07 -1.74087e-06 0)
(2.87709e-07 -1.77946e-06 0)
(2.77257e-07 -1.8237e-06 0)
(2.69017e-07 -1.84914e-06 0)
(2.58996e-07 -1.88304e-06 0)
(2.49974e-07 -1.91321e-06 0)
(2.43991e-07 -1.94679e-06 0)
(2.35582e-07 -1.96754e-06 0)
(2.28761e-07 -1.99536e-06 0)
(2.22617e-07 -2.01489e-06 0)
(2.16223e-07 -2.03775e-06 0)
(2.10845e-07 -2.05066e-06 0)
(2.05045e-07 -2.07065e-06 0)
(1.99337e-07 -2.08572e-06 0)
(1.94035e-07 -2.10453e-06 0)
(1.90498e-07 -2.11601e-06 0)
(1.85279e-07 -2.13264e-06 0)
(1.82034e-07 -2.14406e-06 0)
(1.77467e-07 -2.15786e-06 0)
(1.7456e-07 -2.16701e-06 0)
(1.7073e-07 -2.18011e-06 0)
(1.67448e-07 -2.18628e-06 0)
(1.63549e-07 -2.1984e-06 0)
(1.60873e-07 -2.20494e-06 0)
(1.57262e-07 -2.21565e-06 0)
(1.54061e-07 -2.22228e-06 0)
(1.51102e-07 -2.23002e-06 0)
(1.47684e-07 -2.2369e-06 0)
(1.44714e-07 -2.24391e-06 0)
(1.41604e-07 -2.249e-06 0)
(1.38718e-07 -2.25641e-06 0)
(1.35604e-07 -2.26008e-06 0)
(1.32643e-07 -2.26648e-06 0)
(1.29642e-07 -2.27005e-06 0)
(1.26683e-07 -2.27489e-06 0)
(1.2346e-07 -2.27875e-06 0)
(1.20508e-07 -2.28284e-06 0)
(1.17347e-07 -2.286e-06 0)
(1.14358e-07 -2.28972e-06 0)
(1.11801e-07 -2.29196e-06 0)
(1.10319e-07 -2.29513e-06 0)
(1.07925e-07 -2.29786e-06 0)
(1.05669e-07 -2.30071e-06 0)
(1.03171e-07 -2.30288e-06 0)
(1.01216e-07 -2.30544e-06 0)
(9.90394e-08 -2.3074e-06 0)
(9.74635e-08 -2.30958e-06 0)
(9.56528e-08 -2.31124e-06 0)
(9.42803e-08 -2.31313e-06 0)
(9.26721e-08 -2.31455e-06 0)
(5.54048e-07 -7.18788e-08 0)
(5.52606e-07 -2.22813e-07 0)
(5.47258e-07 -3.56238e-07 0)
(5.42841e-07 -4.99353e-07 0)
(5.33438e-07 -6.21498e-07 0)
(5.25746e-07 -7.42721e-07 0)
(5.13323e-07 -8.61409e-07 0)
(5.02891e-07 -9.7008e-07 0)
(4.88393e-07 -1.07401e-06 0)
(4.79179e-07 -1.16702e-06 0)
(4.61516e-07 -1.26234e-06 0)
(4.49039e-07 -1.34385e-06 0)
(4.34241e-07 -1.4219e-06 0)
(4.22488e-07 -1.49342e-06 0)
(4.06814e-07 -1.57082e-06 0)
(3.93447e-07 -1.62692e-06 0)
(3.79376e-07 -1.69229e-06 0)
(3.65939e-07 -1.74214e-06 0)
(3.53373e-07 -1.79505e-06 0)
(3.40997e-07 -1.83907e-06 0)
(3.28e-07 -1.8854e-06 0)
(3.16278e-07 -1.92204e-06 0)
(3.04649e-07 -1.96432e-06 0)
(2.94107e-07 -1.99629e-06 0)
(2.84167e-07 -2.02841e-06 0)
(2.75786e-07 -2.05042e-06 0)
(2.66684e-07 -2.08341e-06 0)
(2.59385e-07 -2.10222e-06 0)
(2.50492e-07 -2.12693e-06 0)
(2.45174e-07 -2.14555e-06 0)
(2.37254e-07 -2.16926e-06 0)
(2.3206e-07 -2.18547e-06 0)
(2.25686e-07 -2.20541e-06 0)
(2.20666e-07 -2.2158e-06 0)
(2.14994e-07 -2.23413e-06 0)
(2.10405e-07 -2.24467e-06 0)
(2.05037e-07 -2.26011e-06 0)
(2.01375e-07 -2.27016e-06 0)
(1.96559e-07 -2.28322e-06 0)
(1.93112e-07 -2.29244e-06 0)
(1.88751e-07 -2.30575e-06 0)
(1.8531e-07 -2.31088e-06 0)
(1.81157e-07 -2.32307e-06 0)
(1.77627e-07 -2.32992e-06 0)
(1.74125e-07 -2.3386e-06 0)
(1.70583e-07 -2.34468e-06 0)
(1.67098e-07 -2.35297e-06 0)
(1.63689e-07 -2.35769e-06 0)
(1.59838e-07 -2.36534e-06 0)
(1.5649e-07 -2.37003e-06 0)
(1.52932e-07 -2.37632e-06 0)
(1.49526e-07 -2.38058e-06 0)
(1.46467e-07 -2.386e-06 0)
(1.43227e-07 -2.38996e-06 0)
(1.40566e-07 -2.39541e-06 0)
(1.37739e-07 -2.39878e-06 0)
(1.35303e-07 -2.40301e-06 0)
(1.33262e-07 -2.4061e-06 0)
(1.3137e-07 -2.40966e-06 0)
(1.28922e-07 -2.41239e-06 0)
(1.26388e-07 -2.41552e-06 0)
(1.23494e-07 -2.41773e-06 0)
(1.20685e-07 -2.42042e-06 0)
(1.17791e-07 -2.42241e-06 0)
(1.1529e-07 -2.42484e-06 0)
(1.12699e-07 -2.42663e-06 0)
(1.10495e-07 -2.42872e-06 0)
(1.08139e-07 -2.43022e-06 0)
(1.06131e-07 -2.43204e-06 0)
(6.25975e-07 -7.37401e-08 0)
(6.20636e-07 -2.32744e-07 0)
(6.19007e-07 -3.72591e-07 0)
(6.08214e-07 -5.22632e-07 0)
(6.01135e-07 -6.45971e-07 0)
(5.91788e-07 -7.81517e-07 0)
(5.76939e-07 -8.95958e-07 0)
(5.69259e-07 -1.01282e-06 0)
(5.52487e-07 -1.11933e-06 0)
(5.38657e-07 -1.21837e-06 0)
(5.24754e-07 -1.31543e-06 0)
(5.09009e-07 -1.40703e-06 0)
(4.92445e-07 -1.48549e-06 0)
(4.75557e-07 -1.5673e-06 0)
(4.58759e-07 -1.6375e-06 0)
(4.4402e-07 -1.7008e-06 0)
(4.28853e-07 -1.76324e-06 0)
(4.12779e-07 -1.82569e-06 0)
(3.98683e-07 -1.87338e-06 0)
(3.82298e-07 -1.92533e-06 0)
(3.6869e-07 -1.96738e-06 0)
(3.54616e-07 -2.01485e-06 0)
(3.4197e-07 -2.04336e-06 0)
(3.3114e-07 -2.07957e-06 0)
(3.20311e-07 -2.11022e-06 0)
(3.08077e-07 -2.14605e-06 0)
(2.97821e-07 -2.1681e-06 0)
(2.88742e-07 -2.19776e-06 0)
(2.80559e-07 -2.21672e-06 0)
(2.71886e-07 -2.2402e-06 0)
(2.64521e-07 -2.25442e-06 0)
(2.56318e-07 -2.27414e-06 0)
(2.50385e-07 -2.29009e-06 0)
(2.43287e-07 -2.30864e-06 0)
(2.38088e-07 -2.32031e-06 0)
(2.31779e-07 -2.3378e-06 0)
(2.26951e-07 -2.3479e-06 0)
(2.21342e-07 -2.36186e-06 0)
(2.1708e-07 -2.37063e-06 0)
(2.12261e-07 -2.38382e-06 0)
(2.08789e-07 -2.3903e-06 0)
(2.03978e-07 -2.4028e-06 0)
(2.00154e-07 -2.40953e-06 0)
(1.95881e-07 -2.41947e-06 0)
(1.92437e-07 -2.42593e-06 0)
(1.88181e-07 -2.43442e-06 0)
(1.84767e-07 -2.44061e-06 0)
(1.80778e-07 -2.44939e-06 0)
(1.77251e-07 -2.45397e-06 0)
(1.73476e-07 -2.46128e-06 0)
(1.69926e-07 -2.46514e-06 0)
(1.66335e-07 -2.47095e-06 0)