/*--------------------------------*- C++ -*----------------------------------*\
  =========                 |
  \\      /  F ield         | OpenFOAM: The Open Source CFD Toolbox
   \\    /   O peration     | Website:  https://openfoam.org
    \\  /    A nd           | Version:  10
     \\/     M anipulation  |
\*---------------------------------------------------------------------------*/
FoamFile
{
    format      ascii;
    class       volVectorField;
    location    "0";
    object      U_d4;
}
// * * * * * * * * * * * * * * * * * * * * * * * * * * * * * * * * * * * * * //

dimensions      [0 1 -1 0 0 0 0];

internalField   nonuniform List<vector> 
66268
(
(-5.83218e-09 -3.37313e-08 0)
(2.26236e-08 -2.74035e-08 0)
(-7.02013e-11 -8.95792e-09 0)
(9.0692e-09 -5.03222e-08 0)
(-3.67825e-08 -5.24107e-08 0)
(1.46518e-08 -6.12565e-08 0)
(-9.00334e-08 -1.80301e-08 0)
(7.01275e-09 -1.02667e-07 0)
(-9.97637e-08 -7.99309e-08 0)
(-6.24843e-09 -6.59333e-08 0)
(-1.06433e-07 -1.01613e-07 0)
(-1.26144e-08 -7.23548e-08 0)
(-7.24409e-08 -1.09434e-07 0)
(-5.53826e-08 -4.99006e-08 0)
(-5.79371e-08 -6.852e-08 0)
(-4.60963e-08 -2.43233e-08 0)
(-7.02704e-08 -3.75071e-08 0)
(-4.78627e-08 -3.26887e-08 0)
(-6.71144e-08 -2.09876e-08 0)
(-2.77067e-08 -5.91527e-08 0)
(-3.20748e-08 -6.1285e-08 0)
(1.81451e-09 -7.21234e-08 0)
(-1.58683e-08 -4.6905e-08 0)
(9.24534e-10 -4.3249e-08 0)
(-1.02369e-08 -4.44452e-08 0)
(1.25677e-08 -3.26628e-08 0)
(7.40247e-09 -2.89325e-09 0)
(2.20856e-08 2.23218e-08 0)
(2.02944e-08 3.68795e-08 0)
(3.18283e-08 4.52284e-08 0)
(3.50676e-08 3.39503e-08 0)
(3.45934e-08 4.07686e-08 0)
(3.63226e-08 5.75616e-08 0)
(3.47196e-08 5.39674e-08 0)
(3.80714e-08 6.99422e-08 0)
(2.92471e-08 7.15535e-08 0)
(3.13726e-08 5.51686e-08 0)
(3.50266e-08 7.011e-08 0)
(3.23578e-08 7.33934e-08 0)
(3.85419e-08 7.88412e-08 0)
(3.78774e-08 9.01419e-08 0)
(3.70518e-08 9.27524e-08 0)
(3.07052e-08 9.17446e-08 0)
(2.65785e-08 8.43957e-08 0)
(2.05642e-08 9.23385e-08 0)
(1.59277e-08 8.57947e-08 0)
(1.30167e-08 8.16575e-08 0)
(1.59035e-08 8.1087e-08 0)
(2.27883e-08 8.13014e-08 0)
(3.8274e-08 8.25857e-08 0)
(5.73902e-08 8.39213e-08 0)
(8.0758e-08 8.42702e-08 0)
(1.04912e-07 8.81541e-08 0)
(1.26385e-07 9.19837e-08 0)
(1.4413e-07 9.42615e-08 0)
(1.5494e-07 1.02647e-07 0)
(1.60365e-07 1.10375e-07 0)
(1.58865e-07 1.19829e-07 0)
(1.53891e-07 1.29437e-07 0)
(1.45082e-07 1.34313e-07 0)
(1.35322e-07 1.39935e-07 0)
(1.24446e-07 1.41465e-07 0)
(1.1361e-07 1.4348e-07 0)
(1.02861e-07 1.45044e-07 0)
(9.26874e-08 1.46497e-07 0)
(8.32294e-08 1.46607e-07 0)
(7.43588e-08 1.45871e-07 0)
(6.6725e-08 1.44047e-07 0)
(5.95742e-08 1.4266e-07 0)
(7.66731e-08 5.80065e-08 0)
(-3.20602e-09 -2.41717e-08 0)
(6.89815e-08 1.46996e-08 0)
(-3.58717e-08 -2.59457e-08 0)
(7.77597e-08 2.96775e-08 0)
(-1.26289e-07 3.37983e-08 0)
(1.40287e-07 -1.80423e-08 0)
(-1.44593e-07 5.34697e-08 0)
(1.69529e-07 1.05416e-07 0)
(-1.58043e-07 1.27391e-07 0)
(1.33274e-07 1.04207e-07 0)
(-8.45479e-08 1.23773e-07 0)
(1.31333e-07 1.56277e-07 0)
(-5.55274e-08 1.39774e-07 0)
(4.48174e-08 1.73112e-07 0)
(-7.45216e-08 1.25983e-07 0)
(3.7041e-08 1.89923e-07 0)
(-2.78869e-08 1.80918e-07 0)
(8.89769e-09 2.13632e-07 0)
(-1.04951e-08 3.10911e-07 0)
(-2.97574e-08 2.95554e-07 0)
(-2.8731e-08 3.49109e-07 0)
(-4.23537e-08 3.68771e-07 0)
(-5.19072e-08 3.89676e-07 0)
(-5.83787e-08 3.46659e-07 0)
(-5.81769e-08 3.74288e-07 0)
(-8.21889e-08 3.5215e-07 0)
(-5.84245e-08 3.00307e-07 0)
(-6.79502e-08 3.48432e-07 0)
(-5.06576e-08 3.30233e-07 0)
(-4.13051e-08 3.69058e-07 0)
(-3.74279e-08 3.77865e-07 0)
(-2.10892e-08 3.43312e-07 0)
(-2.17481e-08 3.36549e-07 0)
(-1.07288e-08 3.3643e-07 0)
(-1.89304e-08 3.25514e-07 0)
(-8.10002e-09 3.48124e-07 0)
(-2.75941e-08 3.11201e-07 0)
(-2.69278e-09 2.97641e-07 0)
(-2.0878e-08 2.74097e-07 0)
(-3.38366e-10 2.59412e-07 0)
(-3.57053e-09 2.42088e-07 0)
(1.324e-08 2.11912e-07 0)
(2.0106e-08 2.1382e-07 0)
(3.48036e-08 1.90042e-07 0)
(3.98939e-08 1.71898e-07 0)
(4.14505e-08 1.64236e-07 0)
(3.76633e-08 1.44482e-07 0)
(2.07008e-08 1.19428e-07 0)
(-8.77199e-09 1.08699e-07 0)
(-5.26493e-08 9.35538e-08 0)
(-1.01177e-07 8.56821e-08 0)
(-1.48415e-07 7.83371e-08 0)
(-1.89694e-07 4.96821e-08 0)
(-2.16306e-07 4.39455e-08 0)
(-2.33805e-07 2.56008e-08 0)
(-2.30288e-07 6.13203e-09 0)
(-2.21691e-07 -1.54559e-08 0)
(-1.99387e-07 -3.53773e-08 0)
(-1.7722e-07 -4.84564e-08 0)
(-1.48772e-07 -6.34146e-08 0)
(-1.22252e-07 -7.859e-08 0)
(-9.46393e-08 -9.32933e-08 0)
(-6.98009e-08 -1.04662e-07 0)
(-4.73037e-08 -1.13868e-07 0)
(-2.74351e-08 -1.23974e-07 0)
(-1.04586e-08 -1.31846e-07 0)
(4.67761e-09 -1.38455e-07 0)
(1.73082e-08 -1.44827e-07 0)
(-1.00171e-07 3.02268e-08 0)
(-8.52421e-08 1.39139e-07 0)
(-8.65066e-08 1.52148e-07 0)
(-4.53524e-08 3.08597e-07 0)
(1.5645e-08 2.50836e-07 0)
(-2.56442e-08 4.90857e-07 0)
(-4.64395e-08 4.52339e-07 0)
(4.95971e-08 4.53171e-07 0)
(2.51187e-08 6.06625e-07 0)
(-1.53586e-08 5.96369e-07 0)
(1.98669e-08 7.14191e-07 0)
(-5.47784e-08 7.08772e-07 0)
(-2.19839e-08 7.74775e-07 0)
(-1.03814e-07 7.45153e-07 0)
(1.87529e-08 7.58697e-07 0)
(-3.41315e-08 8.42327e-07 0)
(1.61097e-08 8.74099e-07 0)
(-1.52883e-08 8.21055e-07 0)
(4.25154e-08 8.84569e-07 0)
(-1.04321e-08 7.89129e-07 0)
(-8.27183e-10 8.12392e-07 0)
(7.17745e-09 7.92538e-07 0)
(-3.71403e-08 7.50271e-07 0)
(-1.64254e-08 7.68076e-07 0)
(-3.07608e-08 7.51703e-07 0)
(2.86467e-09 7.26808e-07 0)
(-3.99914e-08 7.47889e-07 0)
(8.48431e-09 7.56095e-07 0)
(-8.56069e-09 7.50865e-07 0)
(-7.96e-09 7.24587e-07 0)
(-6.53008e-10 6.73987e-07 0)
(-3.66711e-08 6.41203e-07 0)
(-4.52296e-09 6.34846e-07 0)
(-9.64436e-09 5.79484e-07 0)
(2.19511e-09 5.72819e-07 0)
(6.90194e-09 5.55477e-07 0)
(1.93024e-08 4.76359e-07 0)
(1.99582e-08 5.17052e-07 0)
(2.90765e-08 4.52652e-07 0)
(4.27301e-08 4.1755e-07 0)
(6.37893e-08 4.38323e-07 0)
(6.19186e-08 4.02074e-07 0)
(7.68978e-08 4.07378e-07 0)
(7.79108e-08 3.87874e-07 0)
(8.76084e-08 3.85198e-07 0)
(8.79536e-08 3.48332e-07 0)
(8.65581e-08 3.51416e-07 0)
(1.00019e-07 3.59044e-07 0)
(1.14028e-07 3.2236e-07 0)
(1.532e-07 3.03421e-07 0)
(1.89942e-07 2.80437e-07 0)
(2.39873e-07 2.64333e-07 0)
(2.80821e-07 2.64189e-07 0)
(3.17014e-07 2.40068e-07 0)
(3.45786e-07 2.23796e-07 0)
(3.5251e-07 2.23098e-07 0)
(3.54949e-07 2.18951e-07 0)
(3.40393e-07 2.05472e-07 0)
(3.2582e-07 1.86572e-07 0)
(3.04797e-07 1.74244e-07 0)
(2.85491e-07 1.62901e-07 0)
(2.66399e-07 1.57141e-07 0)
(2.49716e-07 1.50242e-07 0)
(2.36292e-07 1.42225e-07 0)
(2.24471e-07 1.3332e-07 0)
(2.16057e-07 1.24278e-07 0)
(2.08625e-07 1.1634e-07 0)
(2.03643e-07 1.07683e-07 0)
(1.99333e-07 9.76248e-08 0)
(1.21781e-08 1.57544e-07 0)
(-2.44111e-08 2.3851e-07 0)
(-9.21555e-08 4.12854e-07 0)
(-1.14786e-07 6.14187e-07 0)
(-1.52965e-07 7.65197e-07 0)
(-1.5586e-07 7.60178e-07 0)
(-1.43432e-07 1.01812e-06 0)
(-3.59838e-07 1.09042e-06 0)
(-2.63716e-08 1.2285e-06 0)
(-2.89909e-07 1.32622e-06 0)
(-9.29607e-08 1.31449e-06 0)
(-2.12142e-07 1.45828e-06 0)
(-8.60506e-09 1.46415e-06 0)
(-2.38681e-07 1.6442e-06 0)
(-7.15551e-08 1.63815e-06 0)
(-1.93321e-07 1.57683e-06 0)
(-1.67582e-07 1.61775e-06 0)
(-1.61922e-07 1.63148e-06 0)
(-1.54802e-07 1.61175e-06 0)
(-7.23673e-08 1.62993e-06 0)
(-6.82871e-08 1.6434e-06 0)
(-4.48269e-08 1.56965e-06 0)
(-2.61957e-08 1.56217e-06 0)
(-5.58422e-09 1.55267e-06 0)
(1.39876e-08 1.46913e-06 0)
(3.12905e-08 1.38923e-06 0)
(5.81884e-08 1.34774e-06 0)
(5.99243e-08 1.25363e-06 0)
(7.35148e-08 1.16336e-06 0)
(9.53768e-08 1.08551e-06 0)
(1.40489e-07 1.01515e-06 0)
(1.61667e-07 9.78196e-07 0)
(1.86917e-07 9.84817e-07 0)
(1.98337e-07 8.51624e-07 0)
(2.20618e-07 8.35048e-07 0)
(2.24335e-07 7.79137e-07 0)
(2.42654e-07 7.20596e-07 0)
(2.35457e-07 6.5432e-07 0)
(2.54348e-07 5.9392e-07 0)
(2.59084e-07 5.83721e-07 0)
(2.75197e-07 4.68157e-07 0)
(2.77458e-07 4.2772e-07 0)
(2.91933e-07 3.71559e-07 0)
(2.92627e-07 3.35325e-07 0)
(2.93376e-07 2.78916e-07 0)
(3.01016e-07 1.91971e-07 0)
(3.09829e-07 1.84281e-07 0)
(3.07699e-07 1.52588e-07 0)
(2.86104e-07 1.34056e-07 0)
(2.60196e-07 1.20757e-07 0)
(2.11916e-07 8.3315e-08 0)
(1.66737e-07 4.59415e-08 0)
(1.16174e-07 8.36653e-09 0)
(7.22326e-08 -1.43524e-08 0)
(4.91735e-08 -5.6717e-08 0)
(3.39461e-08 -9.21458e-08 0)
(4.43468e-08 -1.18983e-07 0)
(5.58512e-08 -1.42292e-07 0)
(8.48578e-08 -1.53423e-07 0)
(1.11664e-07 -1.63347e-07 0)
(1.42717e-07 -1.75567e-07 0)
(1.70524e-07 -1.85878e-07 0)
(1.96109e-07 -1.93957e-07 0)
(2.1855e-07 -2.03429e-07 0)
(2.36517e-07 -2.12708e-07 0)
(2.52032e-07 -2.22963e-07 0)
(2.63841e-07 -2.3333e-07 0)
(2.74079e-07 -2.409e-07 0)
(2.81819e-07 -2.46986e-07 0)
(-3.83847e-07 1.39813e-07 0)
(-3.85642e-07 4.16177e-07 0)
(-3.05248e-07 5.56598e-07 0)
(-2.56463e-07 9.46155e-07 0)
(-2.59793e-07 1.09257e-06 0)
(-2.81119e-07 1.44135e-06 0)
(-2.64381e-07 1.44484e-06 0)
(-2.08964e-07 1.74295e-06 0)
(-1.38407e-07 2.02909e-06 0)
(-3.53302e-07 1.95952e-06 0)
(-3.53121e-08 2.26767e-06 0)
(-2.76412e-07 2.3688e-06 0)
(-4.48774e-08 2.31649e-06 0)
(-1.06777e-07 2.39601e-06 0)
(-1.34707e-08 2.45314e-06 0)
(-6.20193e-08 2.41385e-06 0)
(3.63051e-08 2.51836e-06 0)
(9.53369e-08 2.4464e-06 0)
(1.42967e-07 2.52749e-06 0)
(1.27992e-07 2.41703e-06 0)
(1.35952e-07 2.30396e-06 0)
(1.49991e-07 2.25981e-06 0)
(1.40772e-07 2.13307e-06 0)
(1.82529e-07 2.06549e-06 0)
(1.68423e-07 1.9818e-06 0)
(2.27315e-07 1.87256e-06 0)
(1.77458e-07 1.77786e-06 0)
(2.42323e-07 1.67884e-06 0)
(2.26377e-07 1.62464e-06 0)
(2.55704e-07 1.5389e-06 0)
(2.47714e-07 1.41711e-06 0)
(2.59555e-07 1.24133e-06 0)
(2.88536e-07 1.16857e-06 0)
(2.73622e-07 1.04779e-06 0)
(3.29476e-07 9.59285e-07 0)
(2.95095e-07 8.68444e-07 0)
(3.071e-07 7.16482e-07 0)
(3.039e-07 7.06144e-07 0)
(2.79129e-07 6.09931e-07 0)
(2.95346e-07 5.22102e-07 0)
(2.74143e-07 4.69764e-07 0)
(3.05145e-07 4.07157e-07 0)
(2.79885e-07 3.72637e-07 0)
(3.08165e-07 2.8965e-07 0)
(2.98915e-07 2.78281e-07 0)
(3.09086e-07 2.89114e-07 0)
(3.10356e-07 2.60747e-07 0)
(3.20245e-07 2.05308e-07 0)
(3.30055e-07 1.53113e-07 0)
(3.5971e-07 1.1336e-07 0)
(3.90481e-07 9.0606e-08 0)
(4.30291e-07 6.93909e-08 0)
(4.7109e-07 4.9335e-08 0)
(5.01811e-07 3.90673e-08 0)
(5.27628e-07 2.82169e-08 0)
(5.28365e-07 3.25285e-08 0)
(5.26418e-07 1.28992e-08 0)
(5.05946e-07 -1.08801e-08 0)
(4.84328e-07 -3.53148e-08 0)
(4.56013e-07 -6.59201e-08 0)
(4.30399e-07 -8.48916e-08 0)
(4.06757e-07 -1.01179e-07 0)
(3.85846e-07 -1.14455e-07 0)
(3.70034e-07 -1.29833e-07 0)
(3.56288e-07 -1.45031e-07 0)
(3.47258e-07 -1.5535e-07 0)
(3.39809e-07 -1.62721e-07 0)
(3.3547e-07 -1.68959e-07 0)
(3.31797e-07 -1.75413e-07 0)
(-5.63056e-07 2.26072e-07 0)
(-4.86266e-07 6.04966e-07 0)
(-5.1678e-07 9.43728e-07 0)
(-4.70123e-07 1.27546e-06 0)
(-5.23143e-07 1.58117e-06 0)
(-4.61569e-07 1.66339e-06 0)
(-3.69679e-07 2.2198e-06 0)
(-6.31504e-07 2.3516e-06 0)
(-3.04175e-07 2.40397e-06 0)
(-4.99331e-07 2.78694e-06 0)
(-3.12707e-07 2.79517e-06 0)
(-3.85617e-07 2.9733e-06 0)
(-2.56781e-07 3.13969e-06 0)
(-2.862e-07 3.28386e-06 0)
(-1.38893e-07 3.20795e-06 0)
(-1.13487e-07 3.22073e-06 0)
(-1.29798e-07 3.31722e-06 0)
(-4.32275e-08 3.25053e-06 0)
(-3.64238e-08 3.11099e-06 0)
(5.08155e-08 3.05466e-06 0)
(1.32049e-07 3.00697e-06 0)
(2.23278e-07 2.85156e-06 0)
(2.58061e-07 2.79096e-06 0)
(3.2164e-07 2.6578e-06 0)
(3.64723e-07 2.53832e-06 0)
(4.37321e-07 2.33256e-06 0)
(5.08384e-07 2.23014e-06 0)
(5.37237e-07 2.09209e-06 0)
(5.87456e-07 1.8527e-06 0)
(6.07291e-07 1.66993e-06 0)
(6.40953e-07 1.49038e-06 0)
(6.66672e-07 1.42582e-06 0)
(6.97691e-07 1.29055e-06 0)
(7.03882e-07 1.18663e-06 0)
(7.17678e-07 1.04712e-06 0)
(7.27295e-07 8.17644e-07 0)
(7.27799e-07 8.02531e-07 0)
(7.56324e-07 5.78827e-07 0)
(7.42609e-07 5.23874e-07 0)
(7.72877e-07 4.67251e-07 0)
(7.55378e-07 3.6435e-07 0)
(7.66845e-07 2.774e-07 0)
(7.43683e-07 1.88397e-07 0)
(7.48599e-07 1.82418e-07 0)
(7.30688e-07 2.73939e-08 0)
(7.24123e-07 -1.84604e-08 0)
(6.99217e-07 -8.47519e-08 0)
(6.86216e-07 -1.3052e-07 0)
(6.64462e-07 -1.67303e-07 0)
(6.39784e-07 -1.94472e-07 0)
(6.00075e-07 -2.59503e-07 0)
(5.61751e-07 -3.04737e-07 0)
(5.19601e-07 -3.27799e-07 0)
(4.78215e-07 -3.49115e-07 0)
(4.498e-07 -3.87674e-07 0)
(4.25402e-07 -4.17282e-07 0)
(4.16436e-07 -4.24205e-07 0)
(4.13787e-07 -4.41049e-07 0)
(4.22041e-07 -4.51194e-07 0)
(4.30825e-07 -4.49025e-07 0)
(4.41432e-07 -4.51384e-07 0)
(4.50166e-07 -4.52421e-07 0)
(4.55748e-07 -4.50697e-07 0)
(4.59563e-07 -4.51516e-07 0)
(4.59608e-07 -4.53199e-07 0)
(4.58934e-07 -4.51553e-07 0)
(4.55219e-07 -4.52248e-07 0)
(4.51192e-07 -4.53463e-07 0)
(4.4558e-07 -4.52998e-07 0)
(-7.88691e-07 2.44121e-07 0)
(-8.53998e-07 7.26096e-07 0)
(-7.91061e-07 9.58902e-07 0)
(-8.01192e-07 1.45873e-06 0)
(-8.13078e-07 1.78419e-06 0)
(-8.18501e-07 2.3043e-06 0)
(-7.28137e-07 2.26122e-06 0)
(-8.46079e-07 2.75751e-06 0)
(-4.88794e-07 3.18762e-06 0)
(-6.26683e-07 3.07566e-06 0)
(-3.54541e-07 3.53854e-06 0)
(-3.71892e-07 3.61677e-06 0)
(-1.89668e-07 3.59851e-06 0)
(-3.58193e-07 3.7904e-06 0)
(-2.20889e-07 3.88241e-06 0)
(-1.75221e-07 3.71342e-06 0)
(-4.90986e-09 3.8094e-06 0)
(3.67949e-08 3.7427e-06 0)
(1.58563e-07 3.73e-06 0)
(2.59143e-07 3.68693e-06 0)
(3.38843e-07 3.5335e-06 0)
(3.96279e-07 3.39161e-06 0)
(5.53307e-07 3.16588e-06 0)
(5.66381e-07 3.0156e-06 0)
(6.91759e-07 2.90421e-06 0)
(7.38834e-07 2.7189e-06 0)
(7.68876e-07 2.48935e-06 0)
(8.2234e-07 2.29622e-06 0)
(8.16867e-07 2.14714e-06 0)
(8.86739e-07 1.93756e-06 0)
(9.09425e-07 1.75582e-06 0)
(9.40642e-07 1.52303e-06 0)
(9.57773e-07 1.33754e-06 0)
(9.5721e-07 1.13911e-06 0)
(9.46152e-07 9.94034e-07 0)
(9.57143e-07 8.15939e-07 0)
(9.62642e-07 6.83303e-07 0)
(9.2886e-07 5.83827e-07 0)
(9.5997e-07 4.71008e-07 0)
(9.11813e-07 3.17952e-07 0)
(9.12432e-07 1.9417e-07 0)
(8.56848e-07 8.16662e-08 0)
(8.58718e-07 2.14229e-08 0)
(8.11821e-07 -6.54232e-08 0)
(7.95101e-07 -1.35841e-07 0)
(7.75063e-07 -1.6182e-07 0)
(7.58711e-07 -2.38185e-07 0)
(7.34615e-07 -2.49504e-07 0)
(7.1739e-07 -3.13184e-07 0)
(7.09244e-07 -3.54568e-07 0)
(6.97924e-07 -3.58618e-07 0)
(7.07464e-07 -3.67017e-07 0)
(7.10051e-07 -3.93802e-07 0)
(7.06373e-07 -4.35197e-07 0)
(7.00432e-07 -4.57018e-07 0)
(6.7539e-07 -4.93155e-07 0)
(6.5432e-07 -5.12849e-07 0)
(6.15148e-07 -5.18186e-07 0)
(5.83455e-07 -5.4252e-07 0)
(5.44705e-07 -5.56862e-07 0)
(5.11057e-07 -5.66776e-07 0)
(4.79987e-07 -5.75331e-07 0)
(4.51307e-07 -5.84144e-07 0)
(4.27797e-07 -5.91478e-07 0)
(4.06883e-07 -5.94122e-07 0)
(3.89794e-07 -5.96944e-07 0)
(3.7399e-07 -5.96472e-07 0)
(3.61632e-07 -5.9431e-07 0)
(3.50313e-07 -5.92595e-07 0)
(-1.22778e-06 2.21494e-07 0)
(-9.4584e-07 7.8538e-07 0)
(-1.25629e-06 1.21672e-06 0)
(-1.01826e-06 1.6119e-06 0)
(-1.10361e-06 2.01563e-06 0)
(-9.97559e-07 2.26161e-06 0)
(-7.62375e-07 2.82672e-06 0)
(-8.87817e-07 3.15671e-06 0)
(-8.70178e-07 3.2763e-06 0)
(-8.0365e-07 3.57893e-06 0)
(-8.15285e-07 3.75492e-06 0)
(-8.15808e-07 3.94965e-06 0)
(-5.50928e-07 3.93096e-06 0)
(-3.08031e-07 4.10415e-06 0)
(-2.55384e-07 4.19059e-06 0)
(-8.65543e-08 4.27241e-06 0)
(1.92656e-08 4.29888e-06 0)
(1.71044e-07 4.15278e-06 0)
(3.00643e-07 4.09219e-06 0)
(4.35522e-07 3.94606e-06 0)
(5.26399e-07 3.78027e-06 0)
(7.13659e-07 3.71058e-06 0)
(8.044e-07 3.48757e-06 0)
(9.26323e-07 3.25007e-06 0)
(9.7214e-07 3.15857e-06 0)
(1.07296e-06 2.78553e-06 0)
(1.18535e-06 2.67024e-06 0)
(1.26885e-06 2.387e-06 0)
(1.31052e-06 2.1288e-06 0)
(1.37782e-06 1.926e-06 0)
(1.36557e-06 1.60524e-06 0)
(1.39343e-06 1.47852e-06 0)
(1.41059e-06 1.23571e-06 0)
(1.40052e-06 1.04582e-06 0)
(1.42519e-06 8.96171e-07 0)
(1.42708e-06 6.79312e-07 0)
(1.42276e-06 5.13229e-07 0)
(1.42462e-06 3.42895e-07 0)
(1.34293e-06 2.12729e-07 0)
(1.33296e-06 7.13591e-08 0)
(1.28262e-06 -8.60979e-08 0)
(1.25227e-06 -1.73169e-07 0)
(1.21831e-06 -2.59059e-07 0)
(1.16615e-06 -3.61312e-07 0)
(1.12302e-06 -4.35121e-07 0)
(1.0667e-06 -4.95069e-07 0)
(1.0378e-06 -6.03546e-07 0)
(9.91352e-07 -6.67045e-07 0)
(9.55804e-07 -7.01975e-07 0)
(9.1478e-07 -7.81164e-07 0)
(8.68758e-07 -8.16442e-07 0)
(8.22616e-07 -8.50745e-07 0)
(7.69658e-07 -8.90931e-07 0)
(7.20049e-07 -9.0058e-07 0)
(6.83831e-07 -9.18746e-07 0)
(6.4702e-07 -9.05766e-07 0)
(6.27047e-07 -8.95233e-07 0)
(6.0101e-07 -8.82164e-07 0)
(5.82849e-07 -8.69261e-07 0)
(5.62936e-07 -8.63465e-07 0)
(5.41298e-07 -8.5102e-07 0)
(5.18874e-07 -8.5043e-07 0)
(4.94046e-07 -8.4506e-07 0)
(4.70009e-07 -8.33727e-07 0)
(4.43557e-07 -8.27785e-07 0)
(4.19186e-07 -8.23919e-07 0)
(3.94093e-07 -8.11657e-07 0)
(3.70408e-07 -7.98405e-07 0)
(3.47164e-07 -7.88695e-07 0)
(-1.31448e-06 3.82925e-07 0)
(-1.47754e-06 7.70306e-07 0)
(-1.36165e-06 1.03635e-06 0)
(-1.49858e-06 1.71061e-06 0)
(-1.32545e-06 1.99038e-06 0)
(-1.24368e-06 2.76553e-06 0)
(-1.07655e-06 2.65736e-06 0)
(-1.13486e-06 2.9482e-06 0)
(-1.14452e-06 3.55024e-06 0)
(-1.02134e-06 3.4711e-06 0)
(-8.30568e-07 3.8529e-06 0)
(-6.5918e-07 4.17026e-06 0)
(-4.96712e-07 4.33569e-06 0)
(-4.4968e-07 4.33891e-06 0)
(-3.10498e-07 4.42295e-06 0)
(-6.19162e-08 4.34152e-06 0)
(-1.73493e-08 4.36592e-06 0)
(2.26864e-07 4.30919e-06 0)
(3.05789e-07 4.24928e-06 0)
(5.34616e-07 4.14448e-06 0)
(7.97145e-07 4.03112e-06 0)
(8.47357e-07 3.88398e-06 0)
(9.96259e-07 3.58545e-06 0)
(1.21988e-06 3.34191e-06 0)
(1.40627e-06 3.18159e-06 0)
(1.53601e-06 3.01056e-06 0)
(1.62357e-06 2.73764e-06 0)
(1.63833e-06 2.40766e-06 0)
(1.72791e-06 2.23219e-06 0)
(1.76846e-06 1.89421e-06 0)
(1.83793e-06 1.62042e-06 0)
(1.90141e-06 1.44578e-06 0)
(1.92588e-06 1.14073e-06 0)
(1.96464e-06 9.26499e-07 0)
(1.92226e-06 7.7028e-07 0)
(1.88709e-06 5.1885e-07 0)
(1.83359e-06 3.86562e-07 0)
(1.79511e-06 8.64808e-08 0)
(1.73621e-06 -5.72759e-08 0)
(1.6729e-06 -1.44877e-07 0)
(1.64029e-06 -3.38056e-07 0)
(1.59426e-06 -4.15385e-07 0)
(1.51025e-06 -5.48107e-07 0)
(1.47761e-06 -6.71256e-07 0)
(1.40065e-06 -7.81908e-07 0)
(1.35026e-06 -7.7307e-07 0)
(1.27659e-06 -8.6289e-07 0)
(1.21837e-06 -9.05128e-07 0)
(1.15287e-06 -9.5395e-07 0)
(1.09854e-06 -1.01413e-06 0)
(1.03508e-06 -1.00371e-06 0)
(9.7444e-07 -1.02856e-06 0)
(9.27299e-07 -1.0562e-06 0)
(8.72293e-07 -1.0785e-06 0)
(8.1877e-07 -1.09329e-06 0)
(7.56699e-07 -1.11419e-06 0)
(6.9521e-07 -1.1415e-06 0)
(6.31125e-07 -1.15934e-06 0)
(5.68988e-07 -1.16981e-06 0)
(5.11415e-07 -1.1831e-06 0)
(4.57944e-07 -1.18886e-06 0)
(4.10962e-07 -1.1863e-06 0)
(3.66414e-07 -1.17715e-06 0)
(3.30104e-07 -1.17364e-06 0)
(2.95024e-07 -1.1612e-06 0)
(2.63734e-07 -1.1459e-06 0)
(2.34625e-07 -1.13469e-06 0)
(2.07335e-07 -1.12105e-06 0)
(1.81871e-07 -1.10599e-06 0)
(-1.8507e-06 1.20892e-07 0)
(-1.77148e-06 7.51629e-07 0)
(-1.90863e-06 1.17203e-06 0)
(-1.61254e-06 1.62137e-06 0)
(-1.59555e-06 2.118e-06 0)
(-1.64209e-06 2.39988e-06 0)
(-1.5408e-06 2.88354e-06 0)
(-1.56071e-06 3.02968e-06 0)
(-1.31518e-06 3.28014e-06 0)
(-1.20727e-06 3.7197e-06 0)
(-9.25581e-07 3.92737e-06 0)
(-8.75078e-07 4.12965e-06 0)
(-7.24311e-07 4.00797e-06 0)
(-4.50035e-07 4.15681e-06 0)
(-2.81088e-07 4.43728e-06 0)
(-3.49281e-08 4.40439e-06 0)
(3.00908e-08 4.43693e-06 0)
(3.27216e-07 4.32775e-06 0)
(5.1552e-07 4.2609e-06 0)
(8.57806e-07 4.32832e-06 0)
(9.99295e-07 3.92835e-06 0)
(1.20464e-06 3.71469e-06 0)
(1.3742e-06 3.69394e-06 0)
(1.50582e-06 3.49287e-06 0)
(1.6203e-06 3.29313e-06 0)
(1.80492e-06 2.8579e-06 0)
(1.95465e-06 2.57692e-06 0)
(2.11726e-06 2.30389e-06 0)
(2.24053e-06 2.06708e-06 0)
(2.2931e-06 1.80935e-06 0)
(2.34105e-06 1.52592e-06 0)
(2.35784e-06 1.29024e-06 0)
(2.35416e-06 1.02803e-06 0)
(2.36192e-06 7.16869e-07 0)
(2.30452e-06 4.31229e-07 0)
(2.30504e-06 1.93547e-07 0)
(2.26813e-06 2.32955e-08 0)
(2.22261e-06 -1.72125e-07 0)
(2.18819e-06 -3.73215e-07 0)
(2.11537e-06 -4.42605e-07 0)
(2.02982e-06 -5.64311e-07 0)
(1.93068e-06 -8.14292e-07 0)
(1.81762e-06 -8.6014e-07 0)
(1.72439e-06 -9.55831e-07 0)
(1.64615e-06 -1.10392e-06 0)
(1.53992e-06 -1.16246e-06 0)
(1.44076e-06 -1.30611e-06 0)
(1.35326e-06 -1.34462e-06 0)
(1.25148e-06 -1.39291e-06 0)
(1.1709e-06 -1.47469e-06 0)
(1.09489e-06 -1.55513e-06 0)
(1.02636e-06 -1.54081e-06 0)
(9.59022e-07 -1.53318e-06 0)
(9.00754e-07 -1.56149e-06 0)
(8.39405e-07 -1.55654e-06 0)
(7.81138e-07 -1.54684e-06 0)
(7.24511e-07 -1.53189e-06 0)
(6.6734e-07 -1.52292e-06 0)
(6.06485e-07 -1.50699e-06 0)
(5.46574e-07 -1.48257e-06 0)
(4.82133e-07 -1.4577e-06 0)
(4.19123e-07 -1.44727e-06 0)
(3.56514e-07 -1.41727e-06 0)
(2.9668e-07 -1.38385e-06 0)
(2.38434e-07 -1.37507e-06 0)
(1.84521e-07 -1.35487e-06 0)
(1.33515e-07 -1.33564e-06 0)
(8.62643e-08 -1.31686e-06 0)
(4.18068e-08 -1.29821e-06 0)
(-1.97094e-06 3.45867e-07 0)
(-2.00142e-06 6.28576e-07 0)
(-1.85946e-06 1.00871e-06 0)
(-1.95883e-06 1.69894e-06 0)
(-1.866e-06 1.74025e-06 0)
(-1.73081e-06 2.50867e-06 0)
(-1.94394e-06 2.40218e-06 0)
(-1.66155e-06 2.80745e-06 0)
(-1.24823e-06 3.35604e-06 0)
(-1.38221e-06 3.35935e-06 0)
(-1.02159e-06 3.68677e-06 0)
(-1.03602e-06 3.82926e-06 0)
(-7.30725e-07 4.18327e-06 0)
(-6.02591e-07 4.15219e-06 0)
(-4.78971e-07 4.32059e-06 0)
(-1.69921e-07 4.11904e-06 0)
(7.73186e-08 4.21624e-06 0)
(3.16895e-07 4.2737e-06 0)
(6.24988e-07 4.25387e-06 0)
(7.16809e-07 4.12397e-06 0)
(9.39881e-07 3.88344e-06 0)
(1.27021e-06 3.82125e-06 0)
(1.59721e-06 3.5081e-06 0)
(1.87806e-06 3.20367e-06 0)
(2.06441e-06 3.13071e-06 0)
(2.27586e-06 2.97115e-06 0)
(2.3725e-06 2.69122e-06 0)
(2.59147e-06 2.38754e-06 0)
(2.67764e-06 2.06215e-06 0)
(2.7327e-06 1.6368e-06 0)
(2.77672e-06 1.35885e-06 0)
(2.83315e-06 1.12048e-06 0)
(2.83568e-06 8.31277e-07 0)
(2.85965e-06 4.94388e-07 0)
(2.84335e-06 3.16455e-07 0)
(2.83444e-06 1.30279e-07 0)
(2.78686e-06 -1.1244e-07 0)
(2.71054e-06 -3.70907e-07 0)
(2.65323e-06 -5.74158e-07 0)
(2.55285e-06 -7.69509e-07 0)
(2.45636e-06 -1.007e-06 0)
(2.33293e-06 -1.17092e-06 0)
(2.2485e-06 -1.29847e-06 0)
(2.1087e-06 -1.33326e-06 0)
(2.00178e-06 -1.5084e-06 0)
(1.88235e-06 -1.59567e-06 0)
(1.76684e-06 -1.65176e-06 0)
(1.65643e-06 -1.74758e-06 0)
(1.54775e-06 -1.8246e-06 0)
(1.42805e-06 -1.82601e-06 0)
(1.31992e-06 -1.82003e-06 0)
(1.19275e-06 -1.85239e-06 0)
(1.06364e-06 -1.84797e-06 0)
(9.27934e-07 -1.89023e-06 0)
(7.96038e-07 -1.91208e-06 0)
(6.68191e-07 -1.91104e-06 0)
(5.56993e-07 -1.92582e-06 0)
(4.56508e-07 -1.93079e-06 0)
(3.71017e-07 -1.93321e-06 0)
(2.99016e-07 -1.9378e-06 0)
(2.32469e-07 -1.9475e-06 0)
(1.71667e-07 -1.92944e-06 0)
(1.14778e-07 -1.91138e-06 0)
(5.68328e-08 -1.904e-06 0)
(3.33592e-09 -1.87577e-06 0)
(-4.84305e-08 -1.84486e-06 0)
(-9.79486e-08 -1.82086e-06 0)
(-1.45364e-07 -1.79611e-06 0)
(-1.90249e-07 -1.77046e-06 0)
(-2.29827e-06 4.735e-08 0)
(-2.27358e-06 6.68475e-07 0)
(-2.20199e-06 9.66831e-07 0)
(-2.3425e-06 1.33043e-06 0)
(-2.01451e-06 1.86397e-06 0)
(-2.06557e-06 1.89563e-06 0)
(-1.92707e-06 2.38825e-06 0)
(-1.71673e-06 2.97968e-06 0)
(-1.80045e-06 2.80289e-06 0)
(-1.44913e-06 3.20243e-06 0)
(-1.55866e-06 3.50264e-06 0)
(-1.09925e-06 3.61105e-06 0)
(-1.00277e-06 3.63161e-06 0)
(-6.11391e-07 3.58105e-06 0)
(-4.78404e-07 4.05058e-06 0)
(-1.30071e-07 4.08205e-06 0)
(-5.56057e-08 4.09441e-06 0)
(3.53474e-07 4.11871e-06 0)
(6.90514e-07 3.94326e-06 0)
(9.80889e-07 3.89444e-06 0)
(1.23156e-06 3.81607e-06 0)
(1.67083e-06 3.74769e-06 0)
(1.92763e-06 3.65945e-06 0)
(2.11543e-06 3.34269e-06 0)
(2.3214e-06 3.16532e-06 0)
(2.59737e-06 2.69298e-06 0)
(2.78098e-06 2.46712e-06 0)
(2.91441e-06 2.2565e-06 0)
(3.10293e-06 1.80147e-06 0)
(3.27928e-06 1.54861e-06 0)
(3.41231e-06 1.27415e-06 0)
(3.38225e-06 9.68699e-07 0)
(3.40992e-06 6.98589e-07 0)
(3.37975e-06 3.88414e-07 0)
(3.39924e-06 6.8396e-08 0)
(3.29088e-06 -2.03339e-07 0)
(3.24307e-06 -4.89174e-07 0)
(3.13317e-06 -6.70956e-07 0)
(3.04574e-06 -9.02495e-07 0)
(2.93436e-06 -1.0619e-06 0)
(2.81447e-06 -1.25972e-06 0)
(2.65518e-06 -1.47472e-06 0)
(2.53368e-06 -1.5851e-06 0)
(2.36289e-06 -1.74441e-06 0)
(2.23684e-06 -1.8491e-06 0)
(2.07589e-06 -1.98227e-06 0)
(1.91973e-06 -2.09637e-06 0)
(1.77646e-06 -2.12907e-06 0)
(1.62056e-06 -2.21522e-06 0)
(1.49836e-06 -2.2578e-06 0)
(1.37385e-06 -2.34141e-06 0)
(1.25786e-06 -2.37594e-06 0)
(1.17594e-06 -2.37844e-06 0)
(1.08043e-06 -2.43659e-06 0)
(1.00883e-06 -2.44088e-06 0)
(9.22694e-07 -2.41467e-06 0)
(8.22648e-07 -2.38912e-06 0)
(7.16591e-07 -2.36094e-06 0)
(5.94921e-07 -2.31674e-06 0)
(4.6712e-07 -2.27455e-06 0)
(3.43495e-07 -2.24521e-06 0)
(2.26618e-07 -2.22171e-06 0)
(1.13745e-07 -2.20757e-06 0)
(1.03218e-08 -2.18181e-06 0)
(-8.51228e-08 -2.15158e-06 0)
(-1.74213e-07 -2.12708e-06 0)
(-2.55999e-07 -2.09786e-06 0)
(-3.31701e-07 -2.06998e-06 0)
(-4.01185e-07 -2.04307e-06 0)
(-2.39531e-06 2.71717e-07 0)
(-2.20675e-06 4.89156e-07 0)
(-2.53761e-06 6.85584e-07 0)
(-2.41318e-06 1.42192e-06 0)
(-2.20867e-06 1.41699e-06 0)
(-2.38809e-06 1.95067e-06 0)
(-2.16219e-06 1.97457e-06 0)
(-2.05907e-06 2.25448e-06 0)
(-1.98132e-06 2.74573e-06 0)
(-1.62883e-06 2.70668e-06 0)
(-1.60762e-06 3.08596e-06 0)
(-1.302e-06 3.32463e-06 0)
(-1.08433e-06 3.61453e-06 0)
(-8.38353e-07 3.55991e-06 0)
(-5.15375e-07 3.80792e-06 0)
(-2.03672e-07 3.52501e-06 0)
(-1.07887e-09 3.73774e-06 0)
(4.41947e-07 4.05597e-06 0)
(6.23393e-07 3.92796e-06 0)
(1.11255e-06 3.74124e-06 0)
(1.37573e-06 3.7397e-06 0)
(1.67571e-06 3.77349e-06 0)
(1.98648e-06 3.26373e-06 0)
(2.26409e-06 2.9839e-06 0)
(2.76675e-06 3.05683e-06 0)
(2.86012e-06 2.88623e-06 0)
(3.22025e-06 2.50527e-06 0)
(3.40231e-06 2.27053e-06 0)
(3.57368e-06 2.04846e-06 0)
(3.66178e-06 1.62607e-06 0)
(3.80302e-06 1.09964e-06 0)
(3.85957e-06 7.91423e-07 0)
(3.98924e-06 5.35117e-07 0)
(3.95109e-06 1.99821e-07 0)
(3.93248e-06 -9.94032e-08 0)
(3.88884e-06 -3.7168e-07 0)
(3.82475e-06 -6.06048e-07 0)
(3.72842e-06 -9.32519e-07 0)
(3.60955e-06 -1.12855e-06 0)
(3.45001e-06 -1.39114e-06 0)
(3.30549e-06 -1.72997e-06 0)
(3.15764e-06 -1.8888e-06 0)
(2.96528e-06 -2.07246e-06 0)
(2.80674e-06 -2.13525e-06 0)
(2.63116e-06 -2.29995e-06 0)
(2.44273e-06 -2.50739e-06 0)
(2.29222e-06 -2.53007e-06 0)
(2.10557e-06 -2.69731e-06 0)
(1.93239e-06 -2.76549e-06 0)
(1.7452e-06 -2.76153e-06 0)
(1.55424e-06 -2.85149e-06 0)
(1.35196e-06 -2.84326e-06 0)
(1.12858e-06 -2.87474e-06 0)
(9.02432e-07 -2.9078e-06 0)
(6.92965e-07 -2.87906e-06 0)
(5.09341e-07 -2.92426e-06 0)
(3.46855e-07 -2.94181e-06 0)
(2.17601e-07 -2.94672e-06 0)
(1.02918e-07 -2.99485e-06 0)
(9.36749e-09 -2.99189e-06 0)
(-8.10335e-08 -2.95166e-06 0)
(-1.63978e-07 -2.92761e-06 0)
(-2.44698e-07 -2.89556e-06 0)
(-3.24756e-07 -2.86537e-06 0)
(-4.02912e-07 -2.82588e-06 0)
(-4.80501e-07 -2.789e-06 0)
(-5.54498e-07 -2.75219e-06 0)
(-6.27662e-07 -2.71518e-06 0)
(-6.97185e-07 -2.67922e-06 0)
(-2.59417e-06 8.29621e-08 0)
(-2.61906e-06 4.02778e-07 0)
(-2.44598e-06 5.39741e-07 0)
(-2.57019e-06 1.12332e-06 0)
(-2.49187e-06 1.32487e-06 0)
(-2.33119e-06 1.33678e-06 0)
(-2.26814e-06 1.8774e-06 0)
(-2.02533e-06 2.32351e-06 0)
(-1.93445e-06 2.22654e-06 0)
(-1.87524e-06 2.52939e-06 0)
(-1.60999e-06 2.81382e-06 0)
(-1.30061e-06 3.02338e-06 0)
(-1.17588e-06 2.97206e-06 0)
(-9.77172e-07 2.99275e-06 0)
(-6.17017e-07 3.56621e-06 0)
(-2.92403e-07 3.42509e-06 0)
(-5.2144e-08 3.66816e-06 0)
(3.86436e-07 3.71476e-06 0)
(6.75128e-07 3.62411e-06 0)
(9.9455e-07 3.69685e-06 0)
(1.4409e-06 3.53388e-06 0)
(1.918e-06 3.58971e-06 0)
(2.34581e-06 3.45345e-06 0)
(2.71128e-06 3.4558e-06 0)
(2.97096e-06 3.13939e-06 0)
(3.23322e-06 2.61481e-06 0)
(3.53642e-06 2.58146e-06 0)
(3.82155e-06 2.21065e-06 0)
(4.07248e-06 1.71011e-06 0)
(4.22819e-06 1.50524e-06 0)
(4.3582e-06 1.1855e-06 0)
(4.40957e-06 9.11982e-07 0)
(4.45304e-06 5.51056e-07 0)
(4.46611e-06 6.20491e-08 0)
(4.46131e-06 -2.28094e-07 0)
(4.41321e-06 -5.64952e-07 0)
(4.35182e-06 -9.11556e-07 0)
(4.23525e-06 -1.17863e-06 0)
(4.09651e-06 -1.51295e-06 0)
(3.94443e-06 -1.72327e-06 0)
(3.77247e-06 -1.91085e-06 0)
(3.59066e-06 -2.25338e-06 0)
(3.40214e-06 -2.40097e-06 0)
(3.20162e-06 -2.54868e-06 0)
(2.95598e-06 -2.76387e-06 0)
(2.75198e-06 -2.86898e-06 0)
(2.50429e-06 -3.00501e-06 0)
(2.28717e-06 -3.13026e-06 0)
(2.07502e-06 -3.21041e-06 0)
(1.8687e-06 -3.29048e-06 0)
(1.67329e-06 -3.36393e-06 0)
(1.50902e-06 -3.43835e-06 0)
(1.35797e-06 -3.49628e-06 0)
(1.24552e-06 -3.51245e-06 0)
(1.12143e-06 -3.48564e-06 0)
(9.9269e-07 -3.45456e-06 0)
(8.37729e-07 -3.43289e-06 0)
(6.71596e-07 -3.41368e-06 0)
(4.82927e-07 -3.38936e-06 0)
(3.02401e-07 -3.3641e-06 0)
(1.17297e-07 -3.33395e-06 0)
(-5.7252e-08 -3.30649e-06 0)
(-2.21798e-07 -3.28872e-06 0)
(-3.74101e-07 -3.26324e-06 0)
(-5.12223e-07 -3.22956e-06 0)
(-6.40645e-07 -3.19596e-06 0)
(-7.56831e-07 -3.16095e-06 0)
(-8.65214e-07 -3.12762e-06 0)
(-9.6394e-07 -3.09131e-06 0)
(-2.77236e-06 1.95677e-07 0)
(-2.59653e-06 3.32481e-07 0)
(-2.83207e-06 4.05054e-07 0)
(-2.54287e-06 1.00192e-06 0)
(-2.47521e-06 9.91354e-07 0)
(-2.6302e-06 1.46441e-06 0)
(-2.02464e-06 1.42153e-06 0)
(-2.3332e-06 1.7117e-06 0)
(-2.12291e-06 1.99131e-06 0)
(-1.89469e-06 2.03137e-06 0)
(-1.88043e-06 2.54468e-06 0)
(-1.61334e-06 2.65575e-06 0)
(-1.36103e-06 2.84918e-06 0)
(-1.09797e-06 2.94681e-06 0)
(-6.30084e-07 3.36185e-06 0)
(-4.50979e-07 2.92926e-06 0)
(-9.51565e-08 3.36453e-06 0)
(2.79123e-07 3.7161e-06 0)
(6.17974e-07 3.54289e-06 0)
(1.14803e-06 3.58131e-06 0)
(1.61832e-06 3.74825e-06 0)
(2.03504e-06 3.84126e-06 0)
(2.43662e-06 3.33094e-06 0)
(2.71142e-06 3.01535e-06 0)
(3.16787e-06 3.02573e-06 0)
(3.57153e-06 2.97083e-06 0)
(4.01733e-06 2.69581e-06 0)
(4.17058e-06 2.44366e-06 0)
(4.46153e-06 2.15193e-06 0)
(4.63711e-06 1.66118e-06 0)
(4.8377e-06 1.07762e-06 0)
(4.98832e-06 7.34772e-07 0)
(5.06429e-06 4.52132e-07 0)
(5.11472e-06 5.21226e-08 0)
(5.11609e-06 -3.16743e-07 0)
(5.06031e-06 -6.43375e-07 0)
(4.9854e-06 -9.79247e-07 0)
(4.87332e-06 -1.42981e-06 0)
(4.75144e-06 -1.70119e-06 0)
(4.53968e-06 -2.03183e-06 0)
(4.35453e-06 -2.41894e-06 0)
(4.13587e-06 -2.63256e-06 0)
(3.92101e-06 -2.86962e-06 0)
(3.67789e-06 -3.10116e-06 0)
(3.42763e-06 -3.29708e-06 0)
(3.18663e-06 -3.53949e-06 0)
(2.93284e-06 -3.64532e-06 0)
(2.68937e-06 -3.77257e-06 0)
(2.44663e-06 -3.88299e-06 0)
(2.19906e-06 -3.96649e-06 0)
(1.9445e-06 -4.08539e-06 0)
(1.64125e-06 -4.15203e-06 0)
(1.34617e-06 -4.18492e-06 0)
(1.03571e-06 -4.20185e-06 0)
(7.29675e-07 -4.24904e-06 0)
(4.50191e-07 -4.27203e-06 0)
(2.00986e-07 -4.29802e-06 0)
(1.14916e-08 -4.30347e-06 0)
(-1.55658e-07 -4.30643e-06 0)
(-2.86463e-07 -4.28287e-06 0)
(-4.10616e-07 -4.24044e-06 0)
(-5.2704e-07 -4.2175e-06 0)
(-6.39978e-07 -4.17936e-06 0)
(-7.54303e-07 -4.13915e-06 0)