/*--------------------------------*- C++ -*----------------------------------*\
  =========                 |
  \\      /  F ield         | OpenFOAM: The Open Source CFD Toolbox
   \\    /   O peration     | Website:  https://openfoam.org
    \\  /    A nd           | Version:  10
     \\/     M anipulation  |
\*---------------------------------------------------------------------------*/
FoamFile
{
    format      ascii;
    class       volVectorField;
    location    "0";
    object      U_d5;
}
// * * * * * * * * * * * * * * * * * * * * * * * * * * * * * * * * * * * * * //

dimensions      [0 1 -1 0 0 0 0];

internalField   nonuniform List<vector> 
66268
(
(-3.1612e-09 -1.89256e-08 0)
(8.3287e-09 -5.39514e-08 0)
(-7.18924e-09 -9.55583e-08 0)
(8.24252e-09 -1.20074e-07 0)
(-6.92623e-09 -1.62122e-07 0)
(7.87566e-09 -1.78402e-07 0)
(-6.87984e-09 -2.19212e-07 0)
(7.44326e-09 -2.29354e-07 0)
(-6.16544e-09 -2.66852e-07 0)
(6.68639e-09 -2.70972e-07 0)
(-5.44106e-09 -3.05445e-07 0)
(5.84394e-09 -3.04053e-07 0)
(-4.72105e-09 -3.35841e-07 0)
(4.93548e-09 -3.29922e-07 0)
(-4.29899e-09 -3.58217e-07 0)
(3.97952e-09 -3.48655e-07 0)
(-3.51558e-09 -3.73203e-07 0)
(3.23832e-09 -3.60894e-07 0)
(-2.8029e-09 -3.81646e-07 0)
(2.21738e-09 -3.67579e-07 0)
(-2.28146e-09 -3.84968e-07 0)
(1.7765e-09 -3.69461e-07 0)
(-1.55508e-09 -3.83469e-07 0)
(1.46883e-09 -3.67359e-07 0)
(-9.74625e-10 -3.78342e-07 0)
(1.05779e-09 -3.61867e-07 0)
(-7.3094e-10 -3.69983e-07 0)
(6.97786e-10 -3.53649e-07 0)
(-3.26301e-10 -3.59325e-07 0)
(6.27848e-10 -3.43489e-07 0)
(-9.14719e-11 -3.47054e-07 0)
(4.46624e-10 -3.3179e-07 0)
(5.5021e-11 -3.33465e-07 0)
(3.14247e-10 -3.18858e-07 0)
(5.99537e-11 -3.1915e-07 0)
(1.4154e-10 -3.05341e-07 0)
(-1.37714e-11 -3.04429e-07 0)
(8.69314e-11 -2.91361e-07 0)
(1.02817e-10 -2.89693e-07 0)
(2.00376e-10 -2.7746e-07 0)
(8.3186e-11 -2.75081e-07 0)
(-1.7834e-10 -2.63699e-07 0)
(-6.71036e-10 -2.60724e-07 0)
(-1.57652e-09 -2.50193e-07 0)
(-2.81769e-09 -2.47001e-07 0)
(-4.37545e-09 -2.37348e-07 0)
(-5.97804e-09 -2.34045e-07 0)
(-6.58726e-09 -2.25239e-07 0)
(-6.2931e-09 -2.2199e-07 0)
(-2.97824e-09 -2.14157e-07 0)
(1.81352e-09 -2.10988e-07 0)
(9.85696e-09 -2.03857e-07 0)
(1.8518e-08 -2.00632e-07 0)
(2.80529e-08 -1.94021e-07 0)
(3.67229e-08 -1.90576e-07 0)
(4.34638e-08 -1.84417e-07 0)
(4.86299e-08 -1.80898e-07 0)
(5.07712e-08 -1.75229e-07 0)
(5.16001e-08 -1.71882e-07 0)
(5.00927e-08 -1.66857e-07 0)
(4.79907e-08 -1.63746e-07 0)
(4.47582e-08 -1.59285e-07 0)
(4.12388e-08 -1.56434e-07 0)
(3.74713e-08 -1.52538e-07 0)
(3.37084e-08 -1.49952e-07 0)
(3.02909e-08 -1.4654e-07 0)
(2.6966e-08 -1.44193e-07 0)
(2.42141e-08 -1.41201e-07 0)
(2.16387e-08 -1.39067e-07 0)
(8.25413e-08 -4.53151e-08 0)
(7.06048e-08 -1.66612e-07 0)
(8.31806e-08 -2.58331e-07 0)
(6.84315e-08 -3.62214e-07 0)
(7.81149e-08 -4.44514e-07 0)
(6.35788e-08 -5.37238e-07 0)
(7.30651e-08 -6.05852e-07 0)
(5.62895e-08 -6.85745e-07 0)
(6.48145e-08 -7.43547e-07 0)
(4.95357e-08 -8.09117e-07 0)
(5.54367e-08 -8.55271e-07 0)
(4.19578e-08 -9.08802e-07 0)
(4.60935e-08 -9.42026e-07 0)
(3.3277e-08 -9.84418e-07 0)
(3.62222e-08 -1.00722e-06 0)
(2.39978e-08 -1.03845e-06 0)
(2.57033e-08 -1.05219e-06 0)
(1.45826e-08 -1.07362e-06 0)
(1.55799e-08 -1.07893e-06 0)
(5.54234e-09 -1.09151e-06 0)
(5.40578e-09 -1.08981e-06 0)
(-3.96535e-09 -1.09507e-06 0)
(-4.79083e-09 -1.08772e-06 0)
(-1.323e-08 -1.08627e-06 0)
(-1.43535e-08 -1.07492e-06 0)
(-2.16545e-08 -1.06789e-06 0)
(-2.30895e-08 -1.05326e-06 0)
(-2.93581e-08 -1.04174e-06 0)
(-3.15141e-08 -1.02458e-06 0)
(-3.69912e-08 -1.00962e-06 0)
(-3.92442e-08 -9.90931e-07 0)
(-4.37425e-08 -9.73424e-07 0)
(-4.6243e-08 -9.54161e-07 0)
(-4.99474e-08 -9.34802e-07 0)
(-5.23703e-08 -9.14753e-07 0)
(-5.5494e-08 -8.94678e-07 0)
(-5.7755e-08 -8.74645e-07 0)
(-6.05661e-08 -8.5413e-07 0)
(-6.27577e-08 -8.3409e-07 0)
(-6.53437e-08 -8.1371e-07 0)
(-6.69989e-08 -7.94423e-07 0)
(-6.88905e-08 -7.74115e-07 0)
(-6.99816e-08 -7.5524e-07 0)
(-7.10436e-08 -7.35634e-07 0)
(-7.10568e-08 -7.17499e-07 0)
(-7.08138e-08 -6.98787e-07 0)
(-7.00982e-08 -6.8115e-07 0)
(-6.94814e-08 -6.63402e-07 0)
(-7.09724e-08 -6.46424e-07 0)
(-7.33063e-08 -6.29493e-07 0)
(-8.02025e-08 -6.13289e-07 0)
(-8.7979e-08 -5.97342e-07 0)
(-9.90757e-08 -5.81997e-07 0)
(-1.10053e-07 -5.6723e-07 0)
(-1.20148e-07 -5.5317e-07 0)
(-1.29232e-07 -5.39659e-07 0)
(-1.34303e-07 -5.2675e-07 0)
(-1.3837e-07 -5.14374e-07 0)
(-1.38189e-07 -5.02428e-07 0)
(-1.37491e-07 -4.90974e-07 0)
(-1.34442e-07 -4.7988e-07 0)
(-1.31622e-07 -4.69272e-07 0)
(-1.27346e-07 -4.59006e-07 0)
(-1.23483e-07 -4.49188e-07 0)
(-1.19307e-07 -4.39663e-07 0)
(-1.15654e-07 -4.30604e-07 0)
(-1.12252e-07 -4.21857e-07 0)
(-1.09338e-07 -4.13562e-07 0)
(-1.06868e-07 -4.05577e-07 0)
(1.92585e-07 -8.25292e-08 0)
(1.98216e-07 -2.68104e-07 0)
(1.84662e-07 -4.33401e-07 0)
(1.9143e-07 -5.88529e-07 0)
(1.74752e-07 -7.43704e-07 0)
(1.79218e-07 -8.71624e-07 0)
(1.59269e-07 -1.01229e-06 0)
(1.63134e-07 -1.1173e-06 0)
(1.42453e-07 -1.23688e-06 0)
(1.43221e-07 -1.32025e-06 0)
(1.22654e-07 -1.42114e-06 0)
(1.20792e-07 -1.48203e-06 0)
(1.0049e-07 -1.56639e-06 0)
(9.65333e-08 -1.60685e-06 0)
(7.68819e-08 -1.67402e-06 0)
(7.1783e-08 -1.69701e-06 0)
(5.30004e-08 -1.74746e-06 0)
(4.70828e-08 -1.75556e-06 0)
(2.90056e-08 -1.79079e-06 0)
(2.17666e-08 -1.78672e-06 0)
(4.88585e-09 -1.80842e-06 0)
(-2.69426e-09 -1.79401e-06 0)
(-1.7969e-08 -1.8036e-06 0)
(-2.61788e-08 -1.78085e-06 0)
(-4.00341e-08 -1.78038e-06 0)
(-4.83171e-08 -1.75152e-06 0)
(-6.09847e-08 -1.74232e-06 0)
(-6.91867e-08 -1.70945e-06 0)
(-8.01913e-08 -1.69337e-06 0)
(-8.81745e-08 -1.65759e-06 0)
(-9.78375e-08 -1.63581e-06 0)
(-1.05566e-07 -1.59822e-06 0)
(-1.1402e-07 -1.57239e-06 0)
(-1.20996e-07 -1.53381e-06 0)
(-1.28442e-07 -1.50516e-06 0)
(-1.34911e-07 -1.46636e-06 0)
(-1.41466e-07 -1.4363e-06 0)
(-1.47184e-07 -1.39786e-06 0)
(-1.52748e-07 -1.36688e-06 0)
(-1.57954e-07 -1.32924e-06 0)
(-1.62849e-07 -1.29756e-06 0)
(-1.67751e-07 -1.26188e-06 0)
(-1.72354e-07 -1.23019e-06 0)
(-1.77315e-07 -1.19608e-06 0)
(-1.82134e-07 -1.16521e-06 0)
(-1.87331e-07 -1.13265e-06 0)
(-1.92488e-07 -1.10315e-06 0)
(-1.9664e-07 -1.07263e-06 0)
(-2.00361e-07 -1.04469e-06 0)
(-2.00169e-07 -1.01609e-06 0)
(-1.99171e-07 -9.89685e-07 0)
(-1.93278e-07 -9.63148e-07 0)
(-1.87022e-07 -9.38389e-07 0)
(-1.78882e-07 -9.13745e-07 0)
(-1.71395e-07 -8.9029e-07 0)
(-1.66087e-07 -8.67221e-07 0)
(-1.61905e-07 -8.45265e-07 0)
(-1.61582e-07 -8.23714e-07 0)
(-1.62114e-07 -8.0328e-07 0)
(-1.65489e-07 -7.83476e-07 0)
(-1.6888e-07 -7.64812e-07 0)
(-1.73528e-07 -7.46795e-07 0)
(-1.78324e-07 -7.29754e-07 0)
(-1.83279e-07 -7.13336e-07 0)
(-1.88049e-07 -6.97829e-07 0)
(-1.92296e-07 -6.82939e-07 0)
(-1.9635e-07 -6.68845e-07 0)
(-1.99687e-07 -6.55331e-07 0)
(-2.02802e-07 -6.42525e-07 0)
(3.73744e-07 -1.11002e-07 0)
(3.60434e-07 -3.78585e-07 0)
(3.66868e-07 -5.96955e-07 0)
(3.47044e-07 -8.2927e-07 0)
(3.46755e-07 -1.02622e-06 0)
(3.24331e-07 -1.2315e-06 0)
(3.20792e-07 -1.3984e-06 0)
(2.93087e-07 -1.57282e-06 0)
(2.85582e-07 -1.71569e-06 0)
(2.57264e-07 -1.85795e-06 0)
(2.45506e-07 -1.97386e-06 0)
(2.16875e-07 -2.08845e-06 0)
(2.03273e-07 -2.17578e-06 0)
(1.73424e-07 -2.26419e-06 0)
(1.58225e-07 -2.32645e-06 0)
(1.27637e-07 -2.39106e-06 0)
(1.10635e-07 -2.43053e-06 0)
(8.07255e-08 -2.47362e-06 0)
(6.31025e-08 -2.49315e-06 0)
(3.46106e-08 -2.517e-06 0)
(1.61692e-08 -2.51916e-06 0)
(-1.10391e-08 -2.52603e-06 0)
(-2.95351e-08 -2.51437e-06 0)
(-5.50893e-08 -2.5073e-06 0)
(-7.33792e-08 -2.48369e-06 0)
(-9.67959e-08 -2.46512e-06 0)
(-1.14545e-07 -2.43314e-06 0)
(-1.3586e-07 -2.40496e-06 0)
(-1.53063e-07 -2.36608e-06 0)
(-1.72295e-07 -2.33033e-06 0)
(-1.88057e-07 -2.28693e-06 0)
(-2.05212e-07 -2.24654e-06 0)
(-2.19869e-07 -2.19964e-06 0)
(-2.35105e-07 -2.15554e-06 0)
(-2.48502e-07 -2.1066e-06 0)
(-2.61943e-07 -2.06112e-06 0)
(-2.74094e-07 -2.01168e-06 0)
(-2.85824e-07 -1.96472e-06 0)
(-2.96832e-07 -1.91597e-06 0)
(-3.07202e-07 -1.86915e-06 0)
(-3.16774e-07 -1.82125e-06 0)
(-3.25635e-07 -1.77513e-06 0)
(-3.33529e-07 -1.72871e-06 0)
(-3.40885e-07 -1.68446e-06 0)
(-3.46743e-07 -1.63966e-06 0)
(-3.52008e-07 -1.59707e-06 0)
(-3.56116e-07 -1.55426e-06 0)
(-3.59732e-07 -1.51352e-06 0)
(-3.64899e-07 -1.47265e-06 0)
(-3.70293e-07 -1.43382e-06 0)
(-3.805e-07 -1.39539e-06 0)
(-3.91229e-07 -1.35859e-06 0)
(-4.05932e-07 -1.32233e-06 0)
(-4.20286e-07 -1.28803e-06 0)
(-4.33863e-07 -1.25458e-06 0)
(-4.46235e-07 -1.22297e-06 0)
(-4.54053e-07 -1.19215e-06 0)
(-4.60656e-07 -1.16293e-06 0)
(-4.62234e-07 -1.13456e-06 0)
(-4.62979e-07 -1.10759e-06 0)
(-4.61325e-07 -1.08138e-06 0)
(-4.59928e-07 -1.05641e-06 0)
(-4.56832e-07 -1.03226e-06 0)
(-4.54147e-07 -1.00923e-06 0)
(-4.51174e-07 -9.87027e-07 0)
(-4.48686e-07 -9.65911e-07 0)
(-4.46458e-07 -9.45606e-07 0)
(-4.44659e-07 -9.26321e-07 0)
(-4.43227e-07 -9.07832e-07 0)
(5.89924e-07 -1.47676e-07 0)
(5.88645e-07 -4.83955e-07 0)
(5.71583e-07 -7.75049e-07 0)
(5.66775e-07 -1.06222e-06 0)
(5.40231e-07 -1.33161e-06 0)
(5.29494e-07 -1.57284e-06 0)
(4.96263e-07 -1.81508e-06 0)
(4.80785e-07 -2.01718e-06 0)
(4.44151e-07 -2.22074e-06 0)
(4.22139e-07 -2.38478e-06 0)
(3.82953e-07 -2.55464e-06 0)
(3.57509e-07 -2.67824e-06 0)
(3.15465e-07 -2.81801e-06 0)
(2.86487e-07 -2.90605e-06 0)
(2.43247e-07 -3.01455e-06 0)
(2.12541e-07 -3.07213e-06 0)
(1.69269e-07 -3.15005e-06 0)
(1.37768e-07 -3.18008e-06 0)
(9.45469e-08 -3.23085e-06 0)
(6.22521e-08 -3.23807e-06 0)
(2.05476e-08 -3.26506e-06 0)
(-1.16902e-08 -3.25242e-06 0)
(-5.11218e-08 -3.25871e-06 0)
(-8.29486e-08 -3.23033e-06 0)
(-1.19965e-07 -3.21905e-06 0)
(-1.50895e-07 -3.17796e-06 0)
(-1.84971e-07 -3.15231e-06 0)
(-2.14116e-07 -3.10205e-06 0)
(-2.45084e-07 -3.06459e-06 0)
(-2.72362e-07 -3.0072e-06 0)
(-3.00528e-07 -2.9612e-06 0)
(-3.25756e-07 -2.89926e-06 0)
(-3.50772e-07 -2.84664e-06 0)
(-3.73569e-07 -2.78237e-06 0)
(-3.96023e-07 -2.72543e-06 0)
(-4.16706e-07 -2.65961e-06 0)
(-4.36282e-07 -2.60018e-06 0)
(-4.5472e-07 -2.53423e-06 0)
(-4.71938e-07 -2.47404e-06 0)
(-4.88149e-07 -2.40898e-06 0)
(-5.03369e-07 -2.34897e-06 0)
(-5.17977e-07 -2.28559e-06 0)
(-5.31617e-07 -2.22654e-06 0)
(-5.44856e-07 -2.16569e-06 0)
(-5.57383e-07 -2.10825e-06 0)
(-5.6986e-07 -2.05027e-06 0)
(-5.81896e-07 -1.99522e-06 0)
(-5.93008e-07 -1.94021e-06 0)
(-6.03433e-07 -1.88822e-06 0)
(-6.09825e-07 -1.83664e-06 0)
(-6.14967e-07 -1.7879e-06 0)
(-6.14134e-07 -1.73985e-06 0)
(-6.12423e-07 -1.6942e-06 0)
(-6.07726e-07 -1.64926e-06 0)
(-6.03365e-07 -1.60642e-06 0)
(-6.00859e-07 -1.56451e-06 0)
(-5.99343e-07 -1.52439e-06 0)
(-6.01892e-07 -1.4854e-06 0)
(-6.05206e-07 -1.44821e-06 0)
(-6.11531e-07 -1.4123e-06 0)
(-6.17593e-07 -1.3782e-06 0)
(-6.24854e-07 -1.34539e-06 0)
(-6.32177e-07 -1.31427e-06 0)
(-6.39339e-07 -1.28438e-06 0)
(-6.46129e-07 -1.25601e-06 0)
(-6.52097e-07 -1.22878e-06 0)
(-6.57742e-07 -1.20292e-06 0)
(-6.6246e-07 -1.17816e-06 0)
(-6.66865e-07 -1.15463e-06 0)
(8.54194e-07 -1.7969e-07 0)
(8.37153e-07 -5.95785e-07 0)
(8.3625e-07 -9.43366e-07 0)
(8.06373e-07 -1.30811e-06 0)
(7.93086e-07 -1.62215e-06 0)
(7.5447e-07 -1.94209e-06 0)
(7.31507e-07 -2.21138e-06 0)
(6.84325e-07 -2.48231e-06 0)
(6.53665e-07 -2.71417e-06 0)
(6.01567e-07 -2.93596e-06 0)
(5.64525e-07 -3.12345e-06 0)
(5.07887e-07 -3.30305e-06 0)
(4.66668e-07 -3.44733e-06 0)
(4.08077e-07 -3.58501e-06 0)
(3.62712e-07 -3.68922e-06 0)
(3.02703e-07 -3.78979e-06 0)
(2.54601e-07 -3.85727e-06 0)
(1.94875e-07 -3.92454e-06 0)
(1.45428e-07 -3.96021e-06 0)
(8.67896e-08 -3.9966e-06 0)
(3.70348e-08 -4.00504e-06 0)
(-1.97106e-08 -4.0145e-06 0)
(-6.86678e-08 -4.00002e-06 0)
(-1.22462e-07 -3.98779e-06 0)
(-1.69762e-07 -3.95395e-06 0)
(-2.20247e-07 -3.92299e-06 0)
(-2.65306e-07 -3.87418e-06 0)
(-3.11825e-07 -3.82875e-06 0)
(-3.54219e-07 -3.76854e-06 0)
(-3.97108e-07 -3.71144e-06 0)
(-4.35972e-07 -3.64318e-06 0)
(-4.74413e-07 -3.57797e-06 0)
(-5.10022e-07 -3.50353e-06 0)
(-5.44606e-07 -3.43309e-06 0)
(-5.76524e-07 -3.35537e-06 0)
(-6.07296e-07 -3.28135e-06 0)
(-6.35976e-07 -3.20243e-06 0)
(-6.63269e-07 -3.12741e-06 0)
(-6.88877e-07 -3.04879e-06 0)
(-7.13046e-07 -2.97375e-06 0)
(-7.35435e-07 -2.89685e-06 0)
(-7.56251e-07 -2.82297e-06 0)
(-7.75467e-07 -2.74815e-06 0)
(-7.93343e-07 -2.67688e-06 0)
(-8.09088e-07 -2.60483e-06 0)
(-8.23565e-07 -2.53622e-06 0)
(-8.35928e-07 -2.46781e-06 0)
(-8.47187e-07 -2.40221e-06 0)
(-8.58777e-07 -2.3371e-06 0)
(-8.70019e-07 -2.2747e-06 0)
(-8.85589e-07 -2.21312e-06 0)
(-9.01414e-07 -2.15411e-06 0)
(-9.21685e-07 -2.0963e-06 0)
(-9.41388e-07 -2.04128e-06 0)
(-9.60501e-07 -1.98767e-06 0)
(-9.77978e-07 -1.93674e-06 0)
(-9.90376e-07 -1.88735e-06 0)
(-1.00113e-06 -1.84041e-06 0)
(-1.00592e-06 -1.79489e-06 0)
(-1.00936e-06 -1.75148e-06 0)
(-1.01007e-06 -1.70947e-06 0)
(-1.011e-06 -1.66938e-06 0)
(-1.01004e-06 -1.63069e-06 0)
(-1.00943e-06 -1.59379e-06 0)
(-1.00855e-06 -1.5583e-06 0)
(-1.00805e-06 -1.52449e-06 0)
(-1.00777e-06 -1.49206e-06 0)
(-1.0078e-06 -1.46123e-06 0)
(-1.00803e-06 -1.43171e-06 0)
(1.15362e-06 -2.15125e-07 0)
(1.14646e-06 -7.03559e-07 0)
(1.12168e-06 -1.12418e-06 0)
(1.10343e-06 -1.54567e-06 0)
(1.0623e-06 -1.933e-06 0)
(1.03154e-06 -2.29158e-06 0)
(9.78818e-07 -2.63755e-06 0)
(9.36434e-07 -2.93946e-06 0)
(8.76044e-07 -3.23104e-06 0)
(8.24805e-07 -3.47773e-06 0)
(7.56812e-07 -3.72119e-06 0)
(6.99599e-07 -3.91093e-06 0)
(6.26035e-07 -4.10761e-06 0)
(5.62637e-07 -4.24788e-06 0)
(4.8572e-07 -4.39951e-06 0)
(4.19332e-07 -4.495e-06 0)
(3.40859e-07 -4.6025e-06 0)
(2.72687e-07 -4.65785e-06 0)
(1.94368e-07 -4.72674e-06 0)
(1.25065e-07 -4.74729e-06 0)
(4.86002e-08 -4.78139e-06 0)
(-2.00059e-08 -4.77248e-06 0)
(-9.39849e-08 -4.77645e-06 0)
(-1.60678e-07 -4.74325e-06 0)
(-2.30687e-07 -4.72265e-06 0)
(-2.94445e-07 -4.66982e-06 0)
(-3.59984e-07 -4.62804e-06 0)
(-4.20167e-07 -4.55976e-06 0)
(-4.80424e-07 -4.5017e-06 0)
(-5.36193e-07 -4.42231e-06 0)
(-5.91277e-07 -4.35124e-06 0)
(-6.42395e-07 -4.26362e-06 0)
(-6.91842e-07 -4.18408e-06 0)
(-7.38078e-07 -4.09185e-06 0)
(-7.82462e-07 -4.00615e-06 0)
(-8.2395e-07 -3.91142e-06 0)
(-8.634e-07 -3.82237e-06 0)
(-9.00189e-07 -3.72679e-06 0)
(-9.34665e-07 -3.63648e-06 0)
(-9.66974e-07 -3.542e-06 0)
(-9.97248e-07 -3.45192e-06 0)
(-1.02581e-06 -3.3593e-06 0)
(-1.05252e-06 -3.27161e-06 0)
(-1.07783e-06 -3.18208e-06 0)
(-1.10148e-06 -3.09689e-06 0)
(-1.12452e-06 -3.01147e-06 0)
(-1.14631e-06 -2.92985e-06 0)
(-1.16706e-06 -2.84868e-06 0)
(-1.18673e-06 -2.77123e-06 0)
(-1.20219e-06 -2.69502e-06 0)
(-1.21596e-06 -2.62254e-06 0)
(-1.22252e-06 -2.55165e-06 0)
(-1.2275e-06 -2.48384e-06 0)
(-1.22793e-06 -2.41759e-06 0)
(-1.22824e-06 -2.35417e-06 0)
(-1.22978e-06 -2.29247e-06 0)
(-1.23213e-06 -2.23337e-06 0)
(-1.23849e-06 -2.17599e-06 0)
(-1.24541e-06 -2.12121e-06 0)
(-1.25563e-06 -2.06825e-06 0)
(-1.26549e-06 -2.01794e-06 0)
(-1.27645e-06 -1.96954e-06 0)
(-1.28722e-06 -1.92354e-06 0)
(-1.29743e-06 -1.87941e-06 0)
(-1.30702e-06 -1.83742e-06 0)
(-1.31545e-06 -1.79719e-06 0)
(-1.32337e-06 -1.75895e-06 0)
(-1.3301e-06 -1.72237e-06 0)
(-1.33635e-06 -1.68758e-06 0)
(1.48955e-06 -2.49657e-07 0)
(1.46629e-06 -8.17384e-07 0)
(1.45673e-06 -1.29706e-06 0)
(1.41257e-06 -1.79667e-06 0)
(1.38203e-06 -2.2312e-06 0)
(1.32221e-06 -2.66779e-06 0)
(1.27507e-06 -3.04414e-06 0)
(1.20214e-06 -3.41409e-06 0)
(1.14268e-06 -3.73669e-06 0)
(1.05891e-06 -4.04239e-06 0)
(9.89208e-07 -4.30436e-06 0)
(8.9775e-07 -4.5519e-06 0)
(8.19624e-07 -4.75681e-06 0)
(7.23309e-07 -4.94705e-06 0)
(6.39341e-07 -5.09619e-06 0)
(5.39941e-07 -5.23591e-06 0)
(4.51577e-07 -5.33511e-06 0)
(3.51304e-07 -5.42828e-06 0)
(2.61197e-07 -5.48355e-06 0)
(1.62049e-07 -5.53438e-06 0)
(7.14243e-08 -5.55165e-06 0)
(-2.55542e-08 -5.56622e-06 0)
(-1.14245e-07 -5.55055e-06 0)
(-2.07519e-07 -5.53389e-06 0)
(-2.92789e-07 -5.49081e-06 0)
(-3.80639e-07 -5.44858e-06 0)
(-4.61478e-07 -5.38424e-06 0)
(-5.43117e-07 -5.32133e-06 0)
(-6.19316e-07 -5.23975e-06 0)
(-6.94443e-07 -5.16079e-06 0)
(-7.64134e-07 -5.06715e-06 0)
(-8.32223e-07 -4.97621e-06 0)
(-8.96088e-07 -4.87387e-06 0)
(-9.57474e-07 -4.77538e-06 0)
(-1.01477e-06 -4.66762e-06 0)
(-1.06954e-06 -4.56438e-06 0)
(-1.1208e-06 -4.45447e-06 0)
(-1.16902e-06 -4.34866e-06 0)
(-1.21463e-06 -4.23903e-06 0)
(-1.25735e-06 -4.13358e-06 0)
(-1.29719e-06 -4.0258e-06 0)
(-1.33436e-06 -3.9223e-06 0)
(-1.36888e-06 -3.81775e-06 0)
(-1.40091e-06 -3.71725e-06 0)
(-1.4301e-06 -3.61672e-06 0)
(-1.45695e-06 -3.52048e-06 0)
(-1.48073e-06 -3.42453e-06 0)
(-1.50232e-06 -3.33284e-06 0)
(-1.52294e-06 -3.24194e-06 0)
(-1.54222e-06 -3.15475e-06 0)
(-1.56504e-06 -3.06894e-06 0)
(-1.58759e-06 -2.98631e-06 0)
(-1.61509e-06 -2.9056e-06 0)
(-1.6418e-06 -2.82842e-06 0)
(-1.66817e-06 -2.75343e-06 0)
(-1.69239e-06 -2.6821e-06 0)
(-1.71071e-06 -2.61306e-06 0)
(-1.72687e-06 -2.54724e-06 0)
(-1.73609e-06 -2.4835e-06 0)
(-1.74343e-06 -2.42287e-06 0)
(-1.74699e-06 -2.36419e-06 0)
(-1.75078e-06 -2.30821e-06 0)
(-1.75273e-06 -2.25425e-06 0)
(-1.75485e-06 -2.20268e-06 0)
(-1.75663e-06 -2.15316e-06 0)
(-1.75862e-06 -2.10597e-06 0)
(-1.76079e-06 -2.06077e-06 0)
(-1.76313e-06 -2.01775e-06 0)
(-1.76554e-06 -1.97663e-06 0)
(1.85229e-06 -2.84872e-07 0)
(1.83964e-06 -9.26346e-07 0)
(1.80486e-06 -1.47955e-06 0)
(1.77148e-06 -2.03795e-06 0)
(1.71281e-06 -2.54595e-06 0)
(1.65783e-06 -3.02458e-06 0)
(1.58155e-06 -3.47647e-06 0)
(1.50802e-06 -3.88045e-06 0)
(1.41787e-06 -4.26402e-06 0)
(1.33101e-06 -4.5963e-06 0)
(1.22785e-06 -4.91584e-06 0)
(1.13071e-06 -5.17607e-06 0)
(1.01895e-06 -5.43305e-06 0)
(9.13614e-07 -5.62833e-06 0)
(7.95098e-07 -5.82606e-06 0)
(6.84707e-07 -5.96304e-06 0)
(5.63156e-07 -6.10347e-06 0)
(4.49651e-07 -6.18684e-06 0)
(3.2681e-07 -6.2763e-06 0)
(2.11891e-07 -6.31354e-06 0)
(9.07887e-08 -6.35753e-06 0)
(-2.25322e-08 -6.35408e-06 0)
(-1.40007e-07 -6.3585e-06 0)
(-2.50691e-07 -6.32173e-06 0)
(-3.63185e-07 -6.29286e-06 0)
(-4.68946e-07 -6.22909e-06 0)
(-5.74737e-07 -6.17198e-06 0)
(-6.74326e-07 -6.0868e-06 0)
(-7.72306e-07 -6.00774e-06 0)
(-8.64714e-07 -5.90555e-06 0)
(-9.54481e-07 -5.8097e-06 0)
(-1.03915e-06 -5.696e-06 0)
(-1.12032e-06 -5.58864e-06 0)
(-1.19695e-06 -5.46714e-06 0)
(-1.26949e-06 -5.35177e-06 0)
(-1.33827e-06 -5.22648e-06 0)
(-1.4024e-06 -5.10557e-06 0)
(-1.4634e-06 -4.97876e-06 0)
(-1.51996e-06 -4.85704e-06 0)
(-1.5733e-06 -4.73084e-06 0)
(-1.623e-06 -4.60945e-06 0)
(-1.66983e-06 -4.4858e-06 0)
(-1.71327e-06 -4.36715e-06 0)
(-1.75399e-06 -4.24735e-06 0)
(-1.79207e-06 -4.13263e-06 0)
(-1.82826e-06 -4.01784e-06 0)
(-1.86231e-06 -3.90765e-06 0)
(-1.89499e-06 -3.79863e-06 0)
(-1.92579e-06 -3.6942e-06 0)
(-1.95252e-06 -3.59156e-06 0)
(-1.97675e-06 -3.49383e-06 0)
(-1.99271e-06 -3.39833e-06 0)
(-2.00612e-06 -3.30711e-06 0)
(-2.013e-06 -3.21826e-06 0)
(-2.01904e-06 -3.13309e-06 0)
(-2.02551e-06 -3.05018e-06 0)
(-2.03256e-06 -2.97066e-06 0)
(-2.0435e-06 -2.89371e-06 0)
(-2.05454e-06 -2.82023e-06 0)
(-2.06915e-06 -2.74933e-06 0)
(-2.08371e-06 -2.68185e-06 0)
(-2.09932e-06 -2.61703e-06 0)
(-2.11401e-06 -2.55534e-06 0)
(-2.12788e-06 -2.49616e-06 0)
(-2.14087e-06 -2.43984e-06 0)
(-2.15234e-06 -2.38595e-06 0)
(-2.16306e-06 -2.33475e-06 0)
(-2.17217e-06 -2.28581e-06 0)
(-2.18039e-06 -2.23928e-06 0)
(2.24874e-06 -3.19867e-07 0)
(2.21848e-06 -1.04159e-06 0)
(2.19777e-06 -1.65577e-06 0)
(2.13677e-06 -2.29134e-06 0)
(2.08572e-06 -2.84961e-06 0)
(2.00177e-06 -3.40422e-06 0)
(1.92732e-06 -3.89047e-06 0)
(1.82373e-06 -4.36236e-06 0)
(1.7301e-06 -4.77805e-06 0)
(1.61043e-06 -5.17103e-06 0)
(1.50142e-06 -5.51081e-06 0)
(1.36991e-06 -5.82889e-06 0)
(1.24888e-06 -6.09669e-06 0)
(1.10869e-06 -6.34346e-06 0)
(9.78514e-07 -6.54082e-06 0)
(8.32932e-07 -6.72249e-06 0)
(6.96393e-07 -6.85694e-06 0)
(5.48904e-07 -6.97968e-06 0)
(4.09525e-07 -7.05759e-06 0)
(2.61924e-07 -7.12578e-06 0)
(1.22517e-07 -7.15442e-06 0)
(-2.28195e-08 -7.1757e-06 0)
(-1.59901e-07 -7.16193e-06 0)
(-3.00266e-07 -7.14319e-06 0)
(-4.32753e-07 -7.0929e-06 0)
(-5.66123e-07 -7.04023e-06 0)
(-6.91643e-07 -6.96106e-06 0)
(-8.16345e-07 -6.88124e-06 0)
(-9.34108e-07 -6.77907e-06 0)
(-1.04953e-06 -6.67794e-06 0)
(-1.15792e-06 -6.55896e-06 0)
(-1.26273e-06 -6.44159e-06 0)
(-1.36192e-06 -6.31091e-06 0)
(-1.45642e-06 -6.18242e-06 0)
(-1.54531e-06 -6.04389e-06 0)
(-1.62952e-06 -5.90889e-06 0)
(-1.70878e-06 -5.76665e-06 0)
(-1.78348e-06 -5.62911e-06 0)
(-1.85371e-06 -5.48624e-06 0)
(-1.91948e-06 -5.34874e-06 0)
(-1.98091e-06 -5.20822e-06 0)
(-2.03814e-06 -5.07286e-06 0)
(-2.09138e-06 -4.9357e-06 0)
(-2.14095e-06 -4.80451e-06 0)
(-2.1864e-06 -4.67335e-06 0)
(-2.22842e-06 -4.54703e-06 0)
(-2.26616e-06 -4.42225e-06 0)
(-2.30064e-06 -4.30234e-06 0)
(-2.33232e-06 -4.18424e-06 0)
(-2.36154e-06 -4.07049e-06 0)
(-2.39294e-06 -3.95871e-06 0)
(-2.42331e-06 -3.85099e-06 0)
(-2.45909e-06 -3.74611e-06 0)
(-2.49376e-06 -3.6454e-06 0)
(-2.52876e-06 -3.54788e-06 0)
(-2.5609e-06 -3.45484e-06 0)
(-2.58613e-06 -3.365e-06 0)
(-2.60837e-06 -3.27918e-06 0)
(-2.62289e-06 -3.19643e-06 0)
(-2.63485e-06 -3.11738e-06 0)
(-2.64215e-06 -3.04122e-06 0)
(-2.64935e-06 -2.96834e-06 0)
(-2.65456e-06 -2.89821e-06 0)
(-2.65966e-06 -2.83118e-06 0)
(-2.66431e-06 -2.76686e-06 0)
(-2.66902e-06 -2.70553e-06 0)
(-2.67373e-06 -2.64683e-06 0)
(-2.67841e-06 -2.59098e-06 0)
(-2.68304e-06 -2.53762e-06 0)
(2.65931e-06 -3.56008e-07 0)
(2.63914e-06 -1.1512e-06 0)
(2.59406e-06 -1.83909e-06 0)
(2.54305e-06 -2.53568e-06 0)
(2.46474e-06 -3.16569e-06 0)
(2.38319e-06 -3.7654e-06 0)
(2.27999e-06 -4.32532e-06 0)
(2.17233e-06 -4.83416e-06 0)
(2.04757e-06 -5.31155e-06 0)
(1.92142e-06 -5.73237e-06 0)
(1.77857e-06 -6.13031e-06 0)
(1.63761e-06 -6.46373e-06 0)
(1.48155e-06 -6.78404e-06 0)
(1.32919e-06 -7.03814e-06 0)
(1.16375e-06 -7.2847e-06 0)
(1.00345e-06 -7.46683e-06 0)
(8.31651e-07 -7.64265e-06 0)
(6.66372e-07 -7.75764e-06 0)
(4.92196e-07 -7.87116e-06 0)
(3.24848e-07 -7.92771e-06 0)
(1.5156e-07 -7.98447e-06 0)
(-1.45449e-08 -7.98976e-06 0)
(-1.83704e-07 -7.99639e-06 0)
(-3.45743e-07 -7.95896e-06 0)
(-5.08015e-07 -7.92405e-06 0)
(-6.63187e-07 -7.85057e-06 0)
(-8.17177e-07 -7.77931e-06 0)
(-9.63735e-07 -7.67763e-06 0)
(-1.1071e-06 -7.57836e-06 0)
(-1.24336e-06 -7.45435e-06 0)
(-1.37512e-06 -7.3332e-06 0)
(-1.50006e-06 -7.19291e-06 0)
(-1.61981e-06 -7.05663e-06 0)
(-1.73266e-06 -6.90487e-06 0)
(-1.84009e-06 -6.75839e-06 0)
(-1.9413e-06 -6.60052e-06 0)
(-2.03672e-06 -6.44743e-06 0)
(-2.12627e-06 -6.28748e-06 0)
(-2.2101e-06 -6.13193e-06 0)
(-2.28848e-06 -5.97227e-06 0)
(-2.36155e-06 -5.81764e-06 0)
(-2.42991e-06 -5.66069e-06 0)
(-2.49338e-06 -5.50938e-06 0)
(-2.55268e-06 -5.35728e-06 0)
(-2.60756e-06 -5.21062e-06 0)
(-2.65949e-06 -5.06467e-06 0)
(-2.70785e-06 -4.92396e-06 0)
(-2.7542e-06 -4.78497e-06 0)
(-2.79771e-06 -4.6514e-06 0)
(-2.83718e-06 -4.52058e-06 0)
(-2.87348e-06 -4.39542e-06 0)
(-2.90065e-06 -4.27376e-06 0)
(-2.92409e-06 -4.15752e-06 0)
(-2.93855e-06 -4.04448e-06 0)
(-2.95106e-06 -3.93613e-06 0)
(-2.96257e-06 -3.83071e-06 0)
(-2.97439e-06 -3.72964e-06 0)
(-2.99045e-06 -3.63204e-06 0)
(-3.00607e-06 -3.53869e-06 0)
(-3.0256e-06 -3.44896e-06 0)
(-3.0448e-06 -3.36319e-06 0)
(-3.06533e-06 -3.28102e-06 0)
(-3.08458e-06 -3.20284e-06 0)
(-3.10246e-06 -3.12794e-06 0)
(-3.1191e-06 -3.05672e-06 0)
(-3.13369e-06 -2.98862e-06 0)
(-3.14727e-06 -2.92387e-06 0)
(-3.15893e-06 -2.862e-06 0)
(-3.1695e-06 -2.80321e-06 0)
(3.09915e-06 -3.90555e-07 0)
(3.0621e-06 -1.2666e-06 0)
(3.02928e-06 -2.01614e-06 0)
(2.95218e-06 -2.78832e-06 0)
(2.87834e-06 -3.4715e-06 0)
(2.76937e-06 -4.14504e-06 0)
(2.66253e-06 -4.74282e-06 0)
(2.5267e-06 -5.31894e-06 0)
(2.3961e-06 -5.82956e-06 0)
(2.2364e-06 -6.31143e-06 0)
(2.086e-06 -6.73149e-06 0)
(1.90908e-06 -7.12283e-06 0)
(1.74111e-06 -7.45616e-06 0)
(1.552e-06 -7.7616e-06 0)
(1.37134e-06 -8.01056e-06 0)
(1.17488e-06 -8.23796e-06 0)
(9.85273e-07 -8.41109e-06 0)
(7.84268e-07 -8.56609e-06 0)
(5.90021e-07 -8.67006e-06 0)
(3.87764e-07 -8.75875e-06 0)
(1.92714e-07 -8.80264e-06 0)
(-7.205e-09 -8.83324e-06 0)
(-1.99696e-07 -8.82377e-06 0)
(-3.94395e-07 -8.80456e-06 0)
(-5.81203e-07 -8.74938e-06 0)
(-7.66194e-07 -8.68855e-06 0)
(-9.44087e-07 -8.59632e-06 0)
(-1.11856e-06 -8.5005e-06 0)
(-1.28583e-06 -8.37897e-06 0)
(-1.44806e-06 -8.25581e-06 0)
(-1.60199e-06 -8.11166e-06 0)
(-1.75039e-06 -7.96785e-06 0)
(-1.89115e-06 -7.80792e-06 0)
(-2.02507e-06 -7.64904e-06 0)
(-2.15162e-06 -7.47849e-06 0)
(-2.2709e-06 -7.31085e-06 0)
(-2.38372e-06 -7.13462e-06 0)
(-2.48904e-06 -6.96269e-06 0)
(-2.58855e-06 -6.78536e-06 0)
(-2.68149e-06 -6.61285e-06 0)
(-2.76826e-06 -6.43724e-06 0)
(-2.8489e-06 -6.26734e-06 0)
(-2.924e-06 -6.09633e-06 0)
(-2.99373e-06 -5.93151e-06 0)
(-3.05808e-06 -5.76741e-06 0)
(-3.11745e-06 -5.60931e-06 0)
(-3.17133e-06 -5.45328e-06 0)
(-3.22054e-06 -5.30322e-06 0)
(-3.26513e-06 -5.15577e-06 0)
(-3.30587e-06 -5.0138e-06 0)
(-3.34681e-06 -4.8747e-06 0)
(-3.38577e-06 -4.74038e-06 0)
(-3.43005e-06 -4.60951e-06 0)
(-3.47301e-06 -4.48376e-06 0)
(-3.51739e-06 -4.36205e-06 0)
(-3.55842e-06 -4.24591e-06 0)
(-3.59159e-06 -4.13391e-06 0)
(-3.62045e-06 -4.02713e-06 0)
(-3.64076e-06 -3.92429e-06 0)
(-3.65775e-06 -3.82581e-06 0)
(-3.66869e-06 -3.73121e-06 0)
(-3.67934e-06 -3.64055e-06 0)
(-3.68766e-06 -3.55341e-06 0)
(-3.69569e-06 -3.47022e-06 0)
(-3.70318e-06 -3.39039e-06 0)
(-3.71054e-06 -3.31433e-06 0)
(-3.71774e-06 -3.24154e-06 0)
(-3.72471e-06 -3.17235e-06 0)
(-3.73148e-06 -3.10623e-06 0)
(3.54738e-06 -4.27436e-07 0)
(3.51905e-06 -1.37567e-06 0)
(3.46383e-06 -2.19813e-06 0)
(3.39312e-06 -3.03327e-06 0)
(3.29433e-06 -3.78577e-06 0)
(3.18423e-06 -4.50797e-06 0)
(3.05123e-06 -5.17682e-06 0)
(2.90803e-06 -5.79027e-06 0)
(2.74532e-06 -6.36417e-06 0)
(2.57852e-06 -6.87412e-06 0)
(2.39219e-06 -7.35275e-06 0)
(2.2048e-06 -7.76238e-06 0)
(2.00115e-06 -8.14793e-06 0)
(1.79824e-06 -8.46351e-06 0)
(1.58109e-06 -8.76095e-06 0)
(1.36682e-06 -8.99126e-06 0)
(1.14057e-06 -9.20605e-06 0)
(9.18866e-07 -9.3559e-06 0)
(6.88543e-07 -9.4967e-06 0)
(4.63062e-07 -9.57599e-06 0)
(2.32833e-07 -9.64831e-06 0)
(8.8351e-09 -9.66552e-06 0)
(-2.17844e-07 -9.67764e-06 0)
(-4.37078e-07 -9.64251e-06 0)
(-6.5639e-07 -9.60259e-06 0)
(-8.67844e-07 -9.52194e-06 0)
(-1.0764e-06 -9.43907e-06 0)
(-1.27677e-06 -9.32236e-06 0)
(-1.4721e-06 -9.20439e-06 0)
(-1.65867e-06 -9.05836e-06 0)
(-1.83896e-06 -8.91294e-06 0)
(-2.01075e-06 -8.74606e-06 0)
(-2.17479e-06 -8.5802e-06 0)
(-2.32999e-06 -8.39781e-06 0)
(-2.47797e-06 -8.21878e-06 0)
(-2.61696e-06 -8.02761e-06 0)
(-2.7485e-06 -7.83994e-06 0)
(-2.87165e-06 -7.64461e-06 0)
(-2.98701e-06 -7.45431e-06 0)
(-3.09444e-06 -7.25866e-06 0)
(-3.19473e-06 -7.06851e-06 0)
(-3.28825e-06 -6.8761e-06 0)
(-3.37498e-06 -6.68985e-06 0)
(-3.45548e-06 -6.50328e-06 0)
(-3.52983e-06 -6.32236e-06 0)
(-3.59951e-06 -6.14295e-06 0)
(-3.66392e-06 -5.96935e-06 0)
(-3.7252e-06 -5.7983e-06 0)
(-3.78237e-06 -5.6335e-06 0)
(-3.83558e-06 -5.47232e-06 0)
(-3.88472e-06 -5.31785e-06 0)
(-3.92426e-06 -5.16772e-06 0)
(-3.95892e-06 -5.02438e-06 0)
(-3.98187e-06 -4.88563e-06 0)
(-4.00142e-06 -4.75264e-06 0)
(-4.01751e-06 -4.62364e-06 0)
(-4.0334e-06 -4.49976e-06 0)
(-4.05472e-06 -4.38007e-06 0)
(-4.07497e-06 -4.2657e-06 0)
(-4.09874e-06 -4.15577e-06 0)
(-4.12292e-06 -4.05107e-06 0)
(-4.14843e-06 -3.95068e-06 0)
(-4.17222e-06 -3.8553e-06 0)
(-4.19415e-06 -3.764e-06 0)
(-4.21436e-06 -3.67721e-06 0)
(-4.23196e-06 -3.59434e-06 0)
(-4.24819e-06 -3.51555e-06 0)
(-4.2623e-06 -3.44034e-06 0)
(-4.27538e-06 -3.36883e-06 0)
(4.01824e-06 -4.61173e-07 0)
(3.97405e-06 -1.48986e-06 0)
(3.92751e-06 -2.37471e-06 0)
(3.83264e-06 -3.28292e-06 0)
(3.73637e-06 -4.09059e-06 0)
(3.59879e-06 -4.88374e-06 0)
(3.46141e-06 -5.59272e-06 0)
(3.29053e-06 -6.27424e-06 0)
(3.12036e-06 -6.88021e-06 0)
(2.9206e-06 -7.45167e-06 0)
(2.72395e-06 -7.95414e-06 0)
(2.50204e-06 -8.41994e-06 0)
(2.28363e-06 -8.82103e-06 0)
(2.04448e-06 -9.18748e-06 0)
(1.80904e-06 -9.4909e-06 0)
(1.55882e-06 -9.76634e-06 0)
(1.31243e-06 -9.98146e-06 0)
(1.05445e-06 -1.01713e-05 0)
(8.00906e-07 -1.03052e-05 0)
(5.40452e-07 -1.04172e-05 0)
(2.85012e-07 -1.04789e-05 0)
(2.52724e-08 -1.05224e-05 0)
(-2.2766e-07 -1.05204e-05 0)
(-4.81898e-07 -1.0504e-05 0)
(-7.2792e-07 -1.04475e-05 0)
(-9.71926e-07 -1.038e-05 0)
(-1.20759e-06 -1.0277e-05 0)
(-1.43854e-06 -1.01671e-05 0)
(-1.66097e-06 -1.00274e-05 0)
(-1.87648e-06 -9.88313e-06 0)
(-2.0823e-06 -9.71507e-06 0)
(-2.28009e-06 -9.54469e-06 0)
(-2.46856e-06 -9.35494e-06 0)
(-2.64781e-06 -9.16631e-06 0)
(-2.8177e-06 -8.96242e-06 0)
(-2.97742e-06 -8.76109e-06 0)
(-3.12865e-06 -8.54971e-06 0)
(-3.2699e-06 -8.34137e-06 0)
(-3.40287e-06 -8.12729e-06 0)
(-3.52686e-06 -7.91774e-06 0)
(-3.64269e-06 -7.70504e-06 0)
(-3.74989e-06 -7.49821e-06 0)
(-3.84982e-06 -7.2906e-06 0)
(-3.9421e-06 -7.08941e-06 0)
(-4.02755e-06 -6.88985e-06 0)
(-4.10615e-06 -6.69721e-06 0)
(-4.17788e-06 -6.5072e-06 0)
(-4.24352e-06 -6.32453e-06 0)
(-4.3025e-06 -6.14548e-06 0)
(-4.35611e-06 -5.97319e-06 0)
(-4.40724e-06 -5.80473e-06 0)
(-4.455e-06 -5.64237e-06 0)
(-4.5075e-06 -5.48407e-06 0)
(-4.55821e-06 -5.33189e-06 0)
(-4.6118e-06 -5.18427e-06 0)
(-4.66189e-06 -5.04361e-06 0)
(-4.70427e-06 -4.90756e-06 0)
(-4.74096e-06 -4.77899e-06 0)
(-4.76522e-06 -4.65465e-06 0)
(-4.78741e-06 -4.53622e-06 0)
(-4.80206e-06 -4.42197e-06 0)
(-4.81571e-06 -4.31283e-06 0)
(-4.82665e-06 -4.20797e-06 0)
(-4.837e-06 -4.10774e-06 0)
(-4.84675e-06 -4.01178e-06 0)
(-4.85615e-06 -3.92031e-06 0)
(-4.86561e-06 -3.83294e-06 0)
(-4.87474e-06 -3.74981e-06 0)
(-4.88373e-06 -3.6706e-06 0)
(4.49165e-06 -4.98359e-07 0)
(4.45419e-06 -1.59802e-06 0)
(4.38901e-06 -2.55418e-06 0)
(4.29751e-06 -3.52551e-06 0)
(4.17655e-06 -4.40054e-06 0)
(4.03859e-06 -5.2442e-06 0)
(3.87272e-06 -6.02105e-06 0)
(3.69434e-06 -6.74027e-06 0)
(3.49436e-06 -7.40989e-06 0)
(3.28377e-06 -8.01024e-06 0)
(3.05371e-06 -8.57027e-06 0)
(2.81813e-06 -9.05672e-06 0)
(2.56506e-06 -9.50972e-06 0)
(2.30964e-06 -9.8889e-06 0)
(2.0384e-06 -1.024e-05 0)
(1.76796e-06 -1.05199e-05 0)
(1.48461e-06 -1.07769e-05 0)
(1.20447e-06 -1.09646e-05 0)
(9.14446e-07 -1.11355e-05 0)
(6.28238e-07 -1.12402e-05 0)
(3.36874e-07 -1.13324e-05 0)
(5.01434e-08 -1.13643e-05 0)
(-2.37662e-07 -1.13853e-05 0)
(-5.19476e-07 -1.13548e-05 0)
(-7.99961e-07 -1.13139e-05 0)
(-1.0724e-06 -1.12289e-05 0)
(-1.34127e-06 -1.11368e-05 0)
(-1.60071e-06 -1.10069e-05 0)
(-1.85406e-06 -1.08722e-05 0)
(-2.09706e-06 -1.07056e-05 0)